
     Program PWSCF v.6.4.1 starts on 25Jul2022 at 18:14:18 

     This program is part of the open-source Quantum ESPRESSO suite
     for quantum simulation of materials; please cite
         "P. Giannozzi et al., J. Phys.:Condens. Matter 21 395502 (2009);
         "P. Giannozzi et al., J. Phys.:Condens. Matter 29 465901 (2017);
          URL http://www.quantum-espresso.org", 
     in publications or presentations arising from this work. More details at
     http://www.quantum-espresso.org/quote

     Parallel version (MPI), running on     6 processors

     MPI processes distributed on     1 nodes
     R & G space division:  proc/nbgrp/npool/nimage =       6
     Reading input from distance-2.2.in

     Current dimensions of program PWSCF are:
     Max number of different atomic species (ntypx) = 10
     Max number of k-points (npk) =  40000
     Max angular momentum in pseudopotentials (lmaxx) =  3

     IMPORTANT: XC functional enforced from input :
     Exchange-correlation      = RVV10 ( 1  4 13  4 3 0)
     Any further DFT definition will be discarded
     Please, verify this is what you really want

               file H.pbe-rrkjus.UPF: wavefunction(s)  1S renormalized
               file Cu.pbe-dn-rrkjus_psl.1.0.0.UPF: wavefunction(s)  3D renormalized

     Subspace diagonalization in iterative solution of the eigenvalue problem:
     a serial algorithm will be used


     Parallelization info
     --------------------
     sticks:   dense  smooth     PW     G-vecs:    dense   smooth      PW
     Min        3051    1746    432               270999   117096   14629
     Max        3053    1747    437               271001   117099   14630
     Sum       18313   10477   2611              1626001   702581   87777



     bravais-lattice index     =            4
     lattice parameter (alat)  =      23.2937  a.u.
     unit-cell volume          =    8879.8548 (a.u.)^3
     number of atoms/cell      =           52
     number of atomic types    =            3
     number of electrons       =       209.00
     number of Kohn-Sham states=          126
     kinetic-energy cutoff     =      70.0000  Ry
     charge density cutoff     =     490.0000  Ry
     convergence threshold     =      1.0E-06
     mixing beta               =       0.7000
     number of iterations used =            8  plain     mixing
     Exchange-correlation      = RVV10 ( 1  4 13  4 3 0)

     celldm(1)=  23.293684  celldm(2)=   0.000000  celldm(3)=   0.811261
     celldm(4)=   0.000000  celldm(5)=   0.000000  celldm(6)=   0.000000

     crystal axes: (cart. coord. in units of alat)
               a(1) = (   1.000000   0.000000   0.000000 )  
               a(2) = (  -0.500000   0.866025   0.000000 )  
               a(3) = (   0.000000   0.000000   0.811261 )  

     reciprocal axes: (cart. coord. in units 2 pi/alat)
               b(1) = (  1.000000  0.577350 -0.000000 )  
               b(2) = (  0.000000  1.154701  0.000000 )  
               b(3) = (  0.000000 -0.000000  1.232649 )  


     PseudoPot. # 1 for H  read from file:
     /home/cristian/Escritorio/Proyecto_Grafeno/pseudopotenciales/H.pbe-rrkjus.UPF
     MD5 check sum: 7cc9d459525c9a0585f487a71c3c9563
     Pseudo is Ultrasoft, Zval =  1.0
     Generated by new atomic code, or converted to UPF format
     Using radial grid of 1061 points,  2 beta functions with: 
                l(1) =   0
                l(2) =   0
     Q(r) pseudized with 0 coefficients 


     PseudoPot. # 2 for C  read from file:
     /home/cristian/Escritorio/Proyecto_Grafeno/pseudopotenciales/C.pbe-n-rrkjus_psl.1.0.0.UPF
     MD5 check sum: 1fdd950c42eb37d8afe3dd2f8d12311e
     Pseudo is Ultrasoft + core correction, Zval =  4.0
     Generated using "atomic" code by A. Dal Corso v.6.3MaX
     Using radial grid of 1073 points,  4 beta functions with: 
                l(1) =   0
                l(2) =   0
                l(3) =   1
                l(4) =   1
     Q(r) pseudized with 0 coefficients 


     PseudoPot. # 3 for Cu read from file:
     /home/cristian/Escritorio/Proyecto_Grafeno/pseudopotenciales/Cu.pbe-dn-rrkjus_psl.1.0.0.UPF
     MD5 check sum: ba3d6c84e19846e79d48cdc68ff7152b
     Pseudo is Ultrasoft + core correction, Zval = 11.0
     Generated using "atomic" code by A. Dal Corso v.6.3
     Using radial grid of 1199 points,  6 beta functions with: 
                l(1) =   0
                l(2) =   0
                l(3) =   1
                l(4) =   1
                l(5) =   2
                l(6) =   2
     Q(r) pseudized with 0 coefficients 


     vdW kernel table read from file rVV10_kernel_table
     MD5 check sum: b8e2538accc0c0b3206b45ba4daaba6c

     atomic species   valence    mass     pseudopotential
        H              1.00     1.00794     H ( 1.00)
        C              4.00    12.01070     C ( 1.00)
        Cu            11.00    63.54600     Cu( 1.00)

     No symmetry found


                                    s                        frac. trans.

      isym =  1     identity                                     

 cryst.   s( 1) = (     1          0          0      )
                  (     0          1          0      )
                  (     0          0          1      )

 cart.    s( 1) = (  1.0000000  0.0000000  0.0000000 )
                  (  0.0000000  1.0000000  0.0000000 )
                  (  0.0000000  0.0000000  1.0000000 )


     point group C_1 (1)    
     there are  1 classes
     the character table:

       E    
A      1.00

     the symmetry operations in each class and the name of the first element:

     E        1
          identity                                               

   Cartesian axes

     site n.     atom                  positions (alat units)
         1           H   tau(   1) = (   0.2194937   0.4907477   0.1784775  )
         2           H   tau(   2) = (   0.2805063   0.4907477   0.1784775  )
         3           C   tau(   3) = (   0.0000000   0.0000000   0.0000000  )
         4           C   tau(   4) = (   0.0000000   0.1154701   0.0000000  )
         5           C   tau(   5) = (  -0.1000000   0.1732051   0.0000000  )
         6           C   tau(   6) = (  -0.1000000   0.2886751   0.0000000  )
         7           C   tau(   7) = (  -0.2000000   0.3464102   0.0000000  )
         8           C   tau(   8) = (  -0.2000000   0.4618802   0.0000000  )
         9           C   tau(   9) = (  -0.3000000   0.5196152   0.0000000  )
        10           C   tau(  10) = (  -0.3000000   0.6350853   0.0000000  )
        11           C   tau(  11) = (  -0.4000000   0.6928203   0.0000000  )
        12           C   tau(  12) = (  -0.4000000   0.8082904   0.0000000  )
        13           C   tau(  13) = (   0.2000000   0.0000000   0.0000000  )
        14           C   tau(  14) = (   0.2000000   0.1154701   0.0000000  )
        15           C   tau(  15) = (   0.1000000   0.1732051   0.0000000  )
        16           C   tau(  16) = (   0.1000000   0.2886751   0.0000000  )
        17           C   tau(  17) = (   0.0000000   0.3464102   0.0000000  )
        18           C   tau(  18) = (   0.0000000   0.4618802   0.0000000  )
        19           C   tau(  19) = (  -0.1000000   0.5196152   0.0000000  )
        20           C   tau(  20) = (  -0.1000000   0.6350853   0.0000000  )
        21           C   tau(  21) = (  -0.2000000   0.6928203   0.0000000  )
        22           C   tau(  22) = (  -0.2000000   0.8082904   0.0000000  )
        23           C   tau(  23) = (   0.4000000   0.0000000   0.0000000  )
        24           C   tau(  24) = (   0.4000000   0.1154701   0.0000000  )
        25           C   tau(  25) = (   0.3000000   0.1732051   0.0000000  )
        26           C   tau(  26) = (   0.3000000   0.2886751   0.0000000  )
        27           C   tau(  27) = (   0.2000000   0.3464102   0.0000000  )
        28           Cu  tau(  28) = (   0.2000000   0.4618802   0.0000000  )
        29           C   tau(  29) = (   0.1000000   0.5196152   0.0000000  )
        30           C   tau(  30) = (   0.1000000   0.6350853   0.0000000  )
        31           C   tau(  31) = (   0.0000000   0.6928203   0.0000000  )
        32           C   tau(  32) = (   0.0000000   0.8082904   0.0000000  )
        33           C   tau(  33) = (   0.6000000   0.0000000   0.0000000  )
        34           C   tau(  34) = (   0.6000000   0.1154701   0.0000000  )
        35           C   tau(  35) = (   0.5000000   0.1732051   0.0000000  )
        36           C   tau(  36) = (   0.5000000   0.2886751   0.0000000  )
        37           C   tau(  37) = (   0.4000000   0.3464102   0.0000000  )
        38           C   tau(  38) = (   0.4000000   0.4618802   0.0000000  )
        39           C   tau(  39) = (   0.3000000   0.5196152   0.0000000  )
        40           C   tau(  40) = (   0.3000000   0.6350853   0.0000000  )
        41           C   tau(  41) = (   0.2000000   0.6928203   0.0000000  )
        42           C   tau(  42) = (   0.2000000   0.8082904   0.0000000  )
        43           C   tau(  43) = (   0.8000000   0.0000000   0.0000000  )
        44           C   tau(  44) = (   0.8000000   0.1154701   0.0000000  )
        45           C   tau(  45) = (   0.7000000   0.1732051   0.0000000  )
        46           C   tau(  46) = (   0.7000000   0.2886751   0.0000000  )
        47           C   tau(  47) = (   0.6000000   0.3464102   0.0000000  )
        48           C   tau(  48) = (   0.6000000   0.4618802   0.0000000  )
        49           C   tau(  49) = (   0.5000000   0.5196152   0.0000000  )
        50           C   tau(  50) = (   0.5000000   0.6350853   0.0000000  )
        51           C   tau(  51) = (   0.4000000   0.6928203   0.0000000  )
        52           C   tau(  52) = (   0.4000000   0.8082904   0.0000000  )

   Crystallographic axes

     site n.     atom                  positions (cryst. coord.)
         1           H   tau(   1) = (  0.5028270  0.5666667  0.2200000  )
         2           H   tau(   2) = (  0.5638397  0.5666667  0.2200000  )
         3           C   tau(   3) = (  0.0000000  0.0000000  0.0000000  )
         4           C   tau(   4) = (  0.0666667  0.1333333  0.0000000  )
         5           C   tau(   5) = (  0.0000000  0.2000000  0.0000000  )
         6           C   tau(   6) = (  0.0666667  0.3333333  0.0000000  )
         7           C   tau(   7) = (  0.0000000  0.4000000  0.0000000  )
         8           C   tau(   8) = (  0.0666667  0.5333333  0.0000000  )
         9           C   tau(   9) = (  0.0000000  0.6000000  0.0000000  )
        10           C   tau(  10) = (  0.0666667  0.7333333  0.0000000  )
        11           C   tau(  11) = (  0.0000000  0.8000000  0.0000000  )
        12           C   tau(  12) = (  0.0666667  0.9333333  0.0000000  )
        13           C   tau(  13) = (  0.2000000  0.0000000  0.0000000  )
        14           C   tau(  14) = (  0.2666667  0.1333333  0.0000000  )
        15           C   tau(  15) = (  0.2000000  0.2000000  0.0000000  )
        16           C   tau(  16) = (  0.2666667  0.3333333  0.0000000  )
        17           C   tau(  17) = (  0.2000000  0.4000000  0.0000000  )
        18           C   tau(  18) = (  0.2666667  0.5333333  0.0000000  )
        19           C   tau(  19) = (  0.2000000  0.6000000  0.0000000  )
        20           C   tau(  20) = (  0.2666667  0.7333333  0.0000000  )
        21           C   tau(  21) = (  0.2000000  0.8000000  0.0000000  )
        22           C   tau(  22) = (  0.2666667  0.9333333  0.0000000  )
        23           C   tau(  23) = (  0.4000000  0.0000000  0.0000000  )
        24           C   tau(  24) = (  0.4666667  0.1333333  0.0000000  )
        25           C   tau(  25) = (  0.4000000  0.2000000  0.0000000  )
        26           C   tau(  26) = (  0.4666667  0.3333333  0.0000000  )
        27           C   tau(  27) = (  0.4000000  0.4000000  0.0000000  )
        28           Cu  tau(  28) = (  0.4666667  0.5333333  0.0000000  )
        29           C   tau(  29) = (  0.4000000  0.6000000  0.0000000  )
        30           C   tau(  30) = (  0.4666667  0.7333333  0.0000000  )
        31           C   tau(  31) = (  0.4000000  0.8000000  0.0000000  )
        32           C   tau(  32) = (  0.4666667  0.9333333  0.0000000  )
        33           C   tau(  33) = (  0.6000000  0.0000000  0.0000000  )
        34           C   tau(  34) = (  0.6666667  0.1333333  0.0000000  )
        35           C   tau(  35) = (  0.6000000  0.2000000  0.0000000  )
        36           C   tau(  36) = (  0.6666667  0.3333333  0.0000000  )
        37           C   tau(  37) = (  0.6000000  0.4000000  0.0000000  )
        38           C   tau(  38) = (  0.6666667  0.5333333  0.0000000  )
        39           C   tau(  39) = (  0.6000000  0.6000000  0.0000000  )
        40           C   tau(  40) = (  0.6666667  0.7333333  0.0000000  )
        41           C   tau(  41) = (  0.6000000  0.8000000  0.0000000  )
        42           C   tau(  42) = (  0.6666667  0.9333333  0.0000000  )
        43           C   tau(  43) = (  0.8000000  0.0000000  0.0000000  )
        44           C   tau(  44) = (  0.8666667  0.1333333  0.0000000  )
        45           C   tau(  45) = (  0.8000000  0.2000000  0.0000000  )
        46           C   tau(  46) = (  0.8666667  0.3333333  0.0000000  )
        47           C   tau(  47) = (  0.8000000  0.4000000  0.0000000  )
        48           C   tau(  48) = (  0.8666667  0.5333333  0.0000000  )
        49           C   tau(  49) = (  0.8000000  0.6000000  0.0000000  )
        50           C   tau(  50) = (  0.8666667  0.7333333  0.0000000  )
        51           C   tau(  51) = (  0.8000000  0.8000000  0.0000000  )
        52           C   tau(  52) = (  0.8666667  0.9333333  0.0000000  )

     number of k points=     1  Marzari-Vanderbilt smearing, width (Ry)=  0.0010
                       cart. coord. in units 2pi/alat
        k(    1) = (   0.0000000   0.0000000   0.0000000), wk =   2.0000000

                       cryst. coord.
        k(    1) = (   0.0000000   0.0000000   0.0000000), wk =   2.0000000

     Dense  grid:  1626001 G-vectors     FFT dimensions: ( 180, 180, 135)

     Smooth grid:   702581 G-vectors     FFT dimensions: ( 125, 125, 108)

     Dynamical RAM for                 wfc:      28.14 MB

     Dynamical RAM for     wfc (w. buffer):      28.14 MB

     Dynamical RAM for           str. fact:      12.41 MB

     Dynamical RAM for           local pot:       0.00 MB

     Dynamical RAM for          nlocal pot:      92.46 MB

     Dynamical RAM for                qrad:      19.73 MB

     Dynamical RAM for          rho,v,vnew:      29.46 MB

     Dynamical RAM for               rhoin:       9.82 MB

     Dynamical RAM for            rho*nmix:      66.16 MB

     Dynamical RAM for           G-vectors:      16.40 MB

     Dynamical RAM for          h,s,v(r/c):      11.63 MB

     Dynamical RAM for          <psi|beta>:       0.80 MB

     Dynamical RAM for                 psi:     112.56 MB

     Dynamical RAM for                hpsi:     112.56 MB

     Dynamical RAM for                spsi:     112.56 MB

     Dynamical RAM for      wfcinit/wfcrot:      93.45 MB

     Dynamical RAM for           addusdens:     971.75 MB

     Estimated static dynamical RAM per process >     319.55 MB

     Estimated max dynamical RAM per process >       1.26 GB

     Estimated total dynamical RAM >       7.57 GB

     Check: negative core charge=   -0.000002

     Initial potential from superposition of free atoms

     starting charge  208.80532, renormalised to  209.00000

     negative rho (up, down):  7.144E-05 0.000E+00


---------------------------------------------------------------------------------
Carrying out rVV10 run using the following parameters:
Nqs =      20    Nr_points =    1024   r_max =   100.000
b_value =  6.30000    beta =  0.00901
     q_mesh =  0.00010000  0.00030000  0.00058939  0.00100810
               0.00161396  0.00249058  0.00375900  0.00559430
               0.00824984  0.01209221  0.01765183  0.02569619
               0.03733578  0.05417739  0.07854596  0.11380545
               0.16482331  0.23864234  0.34545298  0.50000000

Gradients computed in Reciprocal space

---------------------------------------------------------------------------------


     Starting wfcs are  207 randomized atomic wfcs

     total cpu time spent up to now is       50.8 secs

     Self-consistent Calculation

     iteration #  1     ecut=    70.00 Ry     beta= 0.70
     Davidson diagonalization with overlap
     ethr =  1.00E-02,  avg # of iterations =  8.0

     negative rho (up, down):  1.754E-04 0.000E+00

     total cpu time spent up to now is      126.8 secs

     total energy              =    -732.55366764 Ry
     Harris-Foulkes estimate   =    -737.57304624 Ry
     estimated scf accuracy    <       7.58754253 Ry

     iteration #  2     ecut=    70.00 Ry     beta= 0.70
     Davidson diagonalization with overlap
     ethr =  3.63E-03,  avg # of iterations =  4.0

     negative rho (up, down):  2.204E-04 0.000E+00

     total cpu time spent up to now is      198.1 secs

     total energy              =    -732.09856902 Ry
     Harris-Foulkes estimate   =    -736.75922370 Ry
     estimated scf accuracy    <       8.84669641 Ry

     iteration #  3     ecut=    70.00 Ry     beta= 0.70
     Davidson diagonalization with overlap
     ethr =  3.63E-03,  avg # of iterations =  7.0

     negative rho (up, down):  2.795E-04 0.000E+00

     total cpu time spent up to now is      256.5 secs

     total energy              =    -730.47022510 Ry
     Harris-Foulkes estimate   =    -736.33854466 Ry
     estimated scf accuracy    <      27.44432314 Ry

     iteration #  4     ecut=    70.00 Ry     beta= 0.70
     Davidson diagonalization with overlap
     ethr =  3.63E-03,  avg # of iterations =  3.0

     negative rho (up, down):  3.041E-04 0.000E+00

     total cpu time spent up to now is      320.8 secs

     total energy              =    -734.25964669 Ry
     Harris-Foulkes estimate   =    -735.44010687 Ry
     estimated scf accuracy    <       7.10627419 Ry

     iteration #  5     ecut=    70.00 Ry     beta= 0.70
     Davidson diagonalization with overlap
     ethr =  3.40E-03,  avg # of iterations =  1.0

     negative rho (up, down):  3.261E-04 0.000E+00

     total cpu time spent up to now is      374.8 secs

     total energy              =    -734.71042030 Ry
     Harris-Foulkes estimate   =    -734.87132815 Ry
     estimated scf accuracy    <       0.73244156 Ry

     iteration #  6     ecut=    70.00 Ry     beta= 0.70
     Davidson diagonalization with overlap
     ethr =  3.50E-04,  avg # of iterations = 10.0

     negative rho (up, down):  3.405E-04 0.000E+00

     total cpu time spent up to now is      434.2 secs

     total energy              =    -734.72694882 Ry
     Harris-Foulkes estimate   =    -734.77040100 Ry
     estimated scf accuracy    <       0.25952427 Ry

     iteration #  7     ecut=    70.00 Ry     beta= 0.70
     Davidson diagonalization with overlap
     ethr =  1.24E-04,  avg # of iterations =  2.0

     negative rho (up, down):  3.835E-04 0.000E+00

     total cpu time spent up to now is      488.5 secs

     total energy              =    -734.71680836 Ry
     Harris-Foulkes estimate   =    -734.75060086 Ry
     estimated scf accuracy    <       0.18288253 Ry

     iteration #  8     ecut=    70.00 Ry     beta= 0.70
     Davidson diagonalization with overlap
     ethr =  8.75E-05,  avg # of iterations =  2.0

     negative rho (up, down):  4.332E-04 0.000E+00

     total cpu time spent up to now is      542.8 secs

     total energy              =    -734.71479660 Ry
     Harris-Foulkes estimate   =    -734.72936680 Ry
     estimated scf accuracy    <       0.07933373 Ry

     iteration #  9     ecut=    70.00 Ry     beta= 0.70
     Davidson diagonalization with overlap
     ethr =  3.80E-05,  avg # of iterations = 11.0

     negative rho (up, down):  5.283E-04 0.000E+00

     total cpu time spent up to now is      599.3 secs

     total energy              =    -734.71312827 Ry
     Harris-Foulkes estimate   =    -734.72198696 Ry
     estimated scf accuracy    <       0.04662720 Ry

     iteration # 10     ecut=    70.00 Ry     beta= 0.70
     Davidson diagonalization with overlap
     ethr =  2.23E-05,  avg # of iterations =  3.0

     negative rho (up, down):  5.924E-04 0.000E+00

     total cpu time spent up to now is      654.2 secs

     total energy              =    -734.71381814 Ry
     Harris-Foulkes estimate   =    -734.71934183 Ry
     estimated scf accuracy    <       0.03480554 Ry

     iteration # 11     ecut=    70.00 Ry     beta= 0.70
     Davidson diagonalization with overlap
     ethr =  1.67E-05,  avg # of iterations =  1.0

     negative rho (up, down):  6.753E-04 0.000E+00

     total cpu time spent up to now is      708.2 secs

     total energy              =    -734.71424279 Ry
     Harris-Foulkes estimate   =    -734.71564414 Ry
     estimated scf accuracy    <       0.01501906 Ry

     iteration # 12     ecut=    70.00 Ry     beta= 0.70
     Davidson diagonalization with overlap
     ethr =  7.19E-06,  avg # of iterations =  3.0

     negative rho (up, down):  6.660E-04 0.000E+00

     total cpu time spent up to now is      762.8 secs

     total energy              =    -734.71497864 Ry
     Harris-Foulkes estimate   =    -734.71554785 Ry
     estimated scf accuracy    <       0.01594995 Ry

     iteration # 13     ecut=    70.00 Ry     beta= 0.70
     Davidson diagonalization with overlap
     ethr =  7.19E-06,  avg # of iterations =  1.0

     negative rho (up, down):  6.776E-04 0.000E+00

     total cpu time spent up to now is      816.9 secs

     total energy              =    -734.71474435 Ry
     Harris-Foulkes estimate   =    -734.71517056 Ry
     estimated scf accuracy    <       0.00299810 Ry

     iteration # 14     ecut=    70.00 Ry     beta= 0.70
     Davidson diagonalization with overlap
     ethr =  1.43E-06,  avg # of iterations =  4.0

     negative rho (up, down):  6.662E-04 0.000E+00

     total cpu time spent up to now is      873.5 secs

     total energy              =    -734.71481947 Ry
     Harris-Foulkes estimate   =    -734.71535341 Ry
     estimated scf accuracy    <       0.01045484 Ry

     iteration # 15     ecut=    70.00 Ry     beta= 0.70
     Davidson diagonalization with overlap
     ethr =  1.43E-06,  avg # of iterations =  1.0

     negative rho (up, down):  6.656E-04 0.000E+00

     total cpu time spent up to now is      927.6 secs

     total energy              =    -734.71505629 Ry
     Harris-Foulkes estimate   =    -734.71510190 Ry
     estimated scf accuracy    <       0.00093835 Ry

     iteration # 16     ecut=    70.00 Ry     beta= 0.70
     Davidson diagonalization with overlap
     ethr =  4.49E-07,  avg # of iterations =  1.0

     negative rho (up, down):  6.646E-04 0.000E+00

     total cpu time spent up to now is      981.7 secs

     total energy              =    -734.71507195 Ry
     Harris-Foulkes estimate   =    -734.71508932 Ry
     estimated scf accuracy    <       0.00029588 Ry

     iteration # 17     ecut=    70.00 Ry     beta= 0.70
     Davidson diagonalization with overlap
     ethr =  1.42E-07,  avg # of iterations =  1.0

     negative rho (up, down):  6.647E-04 0.000E+00

     total cpu time spent up to now is     1035.7 secs

     total energy              =    -734.71508115 Ry
     Harris-Foulkes estimate   =    -734.71508381 Ry
     estimated scf accuracy    <       0.00005480 Ry

     iteration # 18     ecut=    70.00 Ry     beta= 0.70
     Davidson diagonalization with overlap
     ethr =  2.62E-08,  avg # of iterations =  2.0

     negative rho (up, down):  6.650E-04 0.000E+00

     total cpu time spent up to now is     1091.8 secs

     total energy              =    -734.71508272 Ry
     Harris-Foulkes estimate   =    -734.71508341 Ry
     estimated scf accuracy    <       0.00000459 Ry

     iteration # 19     ecut=    70.00 Ry     beta= 0.70
     Davidson diagonalization with overlap
     ethr =  2.19E-09,  avg # of iterations =  3.0

     negative rho (up, down):  6.653E-04 0.000E+00

     total cpu time spent up to now is     1147.3 secs

     End of self-consistent calculation

          k = 0.0000 0.0000 0.0000 ( 87777 PWs)   bands (ev):

   -19.8292 -18.9846 -18.9819 -18.9030 -18.8997 -18.8404 -18.7286 -17.1496
   -17.1456 -17.1255 -17.0797 -17.0777 -16.7935 -16.3103 -16.3084 -16.1742
   -16.1723 -16.1575 -15.7345 -14.3803 -14.3730 -14.1171 -14.0323 -14.0300
   -13.5562 -13.1544 -13.1542 -13.0745 -12.9199 -12.9190 -12.6008 -12.2540
   -12.2528 -11.7048 -11.5939 -11.5916 -11.1324 -10.8676 -10.8662  -9.5013
    -9.3558  -9.3548  -9.2399  -9.2297  -9.2297  -9.2184  -9.1277  -9.0301
    -9.0297  -9.0107  -8.9042  -8.6981  -8.6953  -8.1281  -7.8835  -7.8461
    -7.6381  -7.6370  -7.5792  -7.5264  -7.5100  -6.8533  -6.8433  -6.8421
    -6.7953  -6.7818  -6.7119  -6.7093  -6.6103  -6.6064  -6.5709  -6.5667
    -6.5665  -6.5193  -6.3755  -6.3735  -6.2126  -5.5998  -5.5972  -5.0197
    -4.9525  -4.8762  -4.8737  -4.7628  -4.7309  -4.7281  -4.6931  -4.5380
    -4.5271  -4.3266  -3.8550  -3.8518  -3.8055  -3.8041  -3.7841  -3.6307
    -3.6240  -3.2470  -1.8845  -1.8281  -1.8257  -1.7282  -1.7208  -1.1436
    -0.6334  -0.6328   0.9087   0.9434   0.9469   1.0932   1.1044   1.5148
     2.5642   2.7794   2.7933   2.8366   2.9161   2.9370   3.3556   3.5488
     3.6907   3.8045   3.8099   3.8290   3.9889   4.2566

     occupation numbers 
     1.0000   1.0000   1.0000   1.0000   1.0000   1.0000   1.0000   1.0000
     1.0000   1.0000   1.0000   1.0000   1.0000   1.0000   1.0000   1.0000
     1.0000   1.0000   1.0000   1.0000   1.0000   1.0000   1.0000   1.0000
     1.0000   1.0000   1.0000   1.0000   1.0000   1.0000   1.0000   1.0000
     1.0000   1.0000   1.0000   1.0000   1.0000   1.0000   1.0000   1.0000
     1.0000   1.0000   1.0000   1.0000   1.0000   1.0000   1.0000   1.0000
     1.0000   1.0000   1.0000   1.0000   1.0000   1.0000   1.0000   1.0000
     1.0000   1.0000   1.0000   1.0000   1.0000   1.0000   1.0000   1.0000
     1.0000   1.0000   1.0000   1.0000   1.0000   1.0000   1.0000   1.0000
     1.0000   1.0000   1.0000   1.0000   1.0000   1.0000   1.0000   1.0000
     1.0000   1.0000   1.0000   1.0000   1.0000   1.0000   1.0000   1.0000
     1.0000   1.0000   1.0000   1.0000   1.0000   1.0000   1.0000   1.0000
     1.0000   1.0000   1.0000   1.0000   1.0000   1.0000   1.0000   1.0000
     0.2628   0.2372   0.0000   0.0000   0.0000   0.0000   0.0000   0.0000
     0.0000   0.0000   0.0000   0.0000   0.0000   0.0000   0.0000   0.0000
     0.0000   0.0000   0.0000   0.0000   0.0000   0.0000

     the Fermi energy is    -0.6364 ev

!    total energy              =    -734.71508255 Ry
     Harris-Foulkes estimate   =    -734.71508319 Ry
     estimated scf accuracy    <       0.00000070 Ry

     The total energy is the sum of the following terms:

     one-electron contribution =   -2510.45901601 Ry
     hartree contribution      =    1311.00102560 Ry
     xc contribution           =    -275.98756108 Ry
     ewald contribution        =     740.73108183 Ry
     smearing contrib. (-TS)   =      -0.00061288 Ry

     convergence has been achieved in  19 iterations

     Writing output data file distance-2.2.save/

     init_run     :     48.53s CPU     49.69s WALL (       1 calls)
     electrons    :   1064.65s CPU   1096.61s WALL (       1 calls)

     Called by init_run:
     wfcinit      :     23.43s CPU     23.58s WALL (       1 calls)
     wfcinit:atom :      0.03s CPU      0.05s WALL (       1 calls)
     wfcinit:wfcr :     23.25s CPU     23.34s WALL (       1 calls)
     potinit      :     11.12s CPU     11.51s WALL (       1 calls)
     hinit0       :      8.82s CPU      8.84s WALL (       1 calls)

     Called by electrons:
     c_bands      :    630.86s CPU    634.28s WALL (      19 calls)
     sum_band     :    216.45s CPU    227.67s WALL (      19 calls)
     v_of_rho     :    129.18s CPU    136.40s WALL (      20 calls)
     v_h          :      1.59s CPU      1.63s WALL (      20 calls)
     v_xc         :    127.59s CPU    134.76s WALL (      20 calls)
     newd         :     92.43s CPU    103.28s WALL (      20 calls)
     mix_rho      :      4.25s CPU      4.32s WALL (      19 calls)

     Called by c_bands:
     init_us_2    :      1.93s CPU      1.97s WALL (      39 calls)
     cegterg      :    626.73s CPU    630.13s WALL (      19 calls)

     Called by sum_band:
     sum_band:bec :      0.01s CPU      0.01s WALL (      19 calls)
     addusdens    :    131.56s CPU    142.20s WALL (      19 calls)

     Called by *egterg:
     h_psi        :    340.72s CPU    342.92s WALL (      88 calls)
     s_psi        :    115.26s CPU    115.43s WALL (      88 calls)
     g_psi        :      0.31s CPU      0.31s WALL (      68 calls)
     cdiaghg      :      5.68s CPU      5.68s WALL (      87 calls)
     cegterg:over :     73.53s CPU     73.63s WALL (      68 calls)
     cegterg:upda :     42.46s CPU     42.77s WALL (      68 calls)
     cegterg:last :     33.18s CPU     33.20s WALL (      19 calls)

     Called by h_psi:
     h_psi:pot    :    340.27s CPU    342.12s WALL (      88 calls)
     h_psi:calbec :    114.84s CPU    114.97s WALL (      88 calls)
     vloc_psi     :    110.10s CPU    111.69s WALL (      88 calls)
     add_vuspsi   :    115.33s CPU    115.46s WALL (      88 calls)

     General routines
     calbec       :    165.33s CPU    165.52s WALL (     107 calls)
     fft          :     79.21s CPU     81.98s WALL (    1258 calls)
     ffts         :      0.78s CPU      0.81s WALL (      39 calls)
     fftw         :    116.81s CPU    118.69s WALL (   13264 calls)
     interpolate  :      1.89s CPU      1.95s WALL (      20 calls)

     Parallel routines
     fft_scatt_xy :     34.49s CPU     34.87s WALL (   14561 calls)
     fft_scatt_yz :     69.22s CPU     72.61s WALL (   14561 calls)

     PWSCF        :  18m34.37s CPU  19m 7.71s WALL


   This run was terminated on:  18:33:26  25Jul2022            

=------------------------------------------------------------------------------=
   JOB DONE.
=------------------------------------------------------------------------------=
