
     Program PWSCF v.6.4.1 starts on 28May2022 at 22:23:56 

     This program is part of the open-source Quantum ESPRESSO suite
     for quantum simulation of materials; please cite
         "P. Giannozzi et al., J. Phys.:Condens. Matter 21 395502 (2009);
         "P. Giannozzi et al., J. Phys.:Condens. Matter 29 465901 (2017);
          URL http://www.quantum-espresso.org", 
     in publications or presentations arising from this work. More details at
     http://www.quantum-espresso.org/quote

     Parallel version (MPI), running on     6 processors

     MPI processes distributed on     1 nodes
     R & G space division:  proc/nbgrp/npool/nimage =       6
     Reading input from mn-8.73.in

     Current dimensions of program PWSCF are:
     Max number of different atomic species (ntypx) = 10
     Max number of k-points (npk) =  40000
     Max angular momentum in pseudopotentials (lmaxx) =  3
               file Mn.pbe-spn-rrkjus_psl.0.3.1.UPF: wavefunction(s)  3D renormalized
               file Mn.pbe-spn-rrkjus_psl.0.3.1.UPF: wavefunction(s)  3D renormalized

     Subspace diagonalization in iterative solution of the eigenvalue problem:
     a serial algorithm will be used

     Message from routine setup:
     DEPRECATED: symmetry with ibrav=0, use correct ibrav instead

     Parallelization info
     --------------------
     sticks:   dense  smooth     PW     G-vecs:    dense   smooth      PW
     Min        1734     865    233               132976    47017    6537
     Max        1735     866    235               132981    47022    6538
     Sum       10405    5193   1405               797863   282113   39223



     bravais-lattice index     =            0
     lattice parameter (alat)  =      16.4973  a.u.
     unit-cell volume          =    4489.9276 (a.u.)^3
     number of atoms/cell      =            2
     number of atomic types    =            2
     number of electrons       =        30.00
     number of Kohn-Sham states=           19
     kinetic-energy cutoff     =      60.0000  Ry
     charge density cutoff     =     480.0000  Ry
     convergence threshold     =      1.0E-06
     mixing beta               =       0.7000
     number of iterations used =            8  plain     mixing
     Exchange-correlation      = PBE ( 1  4  3  4 0 0)

     celldm(1)=  16.497309  celldm(2)=   0.000000  celldm(3)=   0.000000
     celldm(4)=   0.000000  celldm(5)=   0.000000  celldm(6)=   0.000000

     crystal axes: (cart. coord. in units of alat)
               a(1) = (   1.000000   0.000000   0.000000 )  
               a(2) = (   0.000000   1.000000   0.000000 )  
               a(3) = (   0.000000   0.000000   1.000000 )  

     reciprocal axes: (cart. coord. in units 2 pi/alat)
               b(1) = (  1.000000  0.000000  0.000000 )  
               b(2) = (  0.000000  1.000000  0.000000 )  
               b(3) = (  0.000000  0.000000  1.000000 )  


     PseudoPot. # 1 for Mn read from file:
     /home/cristian/Escritorio/Proyecto_Grafeno/pseudopotenciales/Mn.pbe-spn-rrkjus_psl.0.3.1.UPF
     MD5 check sum: e1cac159bdd2ba70c18e85765a5d4279
     Pseudo is Ultrasoft + core correction, Zval = 15.0
     Generated using "atomic" code by A. Dal Corso v.6.2.2
     Using radial grid of 1187 points,  6 beta functions with: 
                l(1) =   0
                l(2) =   0
                l(3) =   1
                l(4) =   1
                l(5) =   2
                l(6) =   2
     Q(r) pseudized with 0 coefficients 


     PseudoPot. # 2 for Mn read from file:
     /home/cristian/Escritorio/Proyecto_Grafeno/pseudopotenciales/Mn.pbe-spn-rrkjus_psl.0.3.1.UPF
     MD5 check sum: e1cac159bdd2ba70c18e85765a5d4279
     Pseudo is Ultrasoft + core correction, Zval = 15.0
     Generated using "atomic" code by A. Dal Corso v.6.2.2
     Using radial grid of 1187 points,  6 beta functions with: 
                l(1) =   0
                l(2) =   0
                l(3) =   1
                l(4) =   1
                l(5) =   2
                l(6) =   2
     Q(r) pseudized with 0 coefficients 


     atomic species   valence    mass     pseudopotential
        Mn1           15.00    54.93804     Mn( 1.00)
        Mn2           15.00    54.93804     Mn( 1.00)

     Starting magnetic structure 
     atomic species   magnetization
        Mn1          0.100
        Mn2         -0.100

     48 Sym. Ops., with inversion, found



   Cartesian axes

     site n.     atom                  positions (alat units)
         1           Mn1 tau(   1) = (   0.0000000   0.0000000   0.0000000  )
         2           Mn2 tau(   2) = (   0.5000000   0.5000000   0.5000000  )

     number of k points=    20  Methfessel-Paxton smearing, width (Ry)=  0.0300
                       cart. coord. in units 2pi/alat
        k(    1) = (   0.0625000   0.0625000   0.0625000), wk =   0.0156250
        k(    2) = (   0.0625000   0.0625000   0.1875000), wk =   0.0468750
        k(    3) = (   0.0625000   0.0625000   0.3125000), wk =   0.0468750
        k(    4) = (   0.0625000   0.0625000   0.4375000), wk =   0.0468750
        k(    5) = (   0.0625000   0.1875000   0.1875000), wk =   0.0468750
        k(    6) = (   0.0625000   0.1875000   0.3125000), wk =   0.0937500
        k(    7) = (   0.0625000   0.1875000   0.4375000), wk =   0.0937500
        k(    8) = (   0.0625000   0.3125000   0.3125000), wk =   0.0468750
        k(    9) = (   0.0625000   0.3125000   0.4375000), wk =   0.0937500
        k(   10) = (   0.0625000   0.4375000   0.4375000), wk =   0.0468750
        k(   11) = (   0.1875000   0.1875000   0.1875000), wk =   0.0156250
        k(   12) = (   0.1875000   0.1875000   0.3125000), wk =   0.0468750
        k(   13) = (   0.1875000   0.1875000   0.4375000), wk =   0.0468750
        k(   14) = (   0.1875000   0.3125000   0.3125000), wk =   0.0468750
        k(   15) = (   0.1875000   0.3125000   0.4375000), wk =   0.0937500
        k(   16) = (   0.1875000   0.4375000   0.4375000), wk =   0.0468750
        k(   17) = (   0.3125000   0.3125000   0.3125000), wk =   0.0156250
        k(   18) = (   0.3125000   0.3125000   0.4375000), wk =   0.0468750
        k(   19) = (   0.3125000   0.4375000   0.4375000), wk =   0.0468750
        k(   20) = (   0.4375000   0.4375000   0.4375000), wk =   0.0156250

     Dense  grid:   797863 G-vectors     FFT dimensions: ( 120, 120, 120)

     Smooth grid:   282113 G-vectors     FFT dimensions: (  81,  81,  81)

     Estimated max dynamical RAM per process >     593.76 MB

     Estimated total dynamical RAM >       3.48 GB
     Generating pointlists ...
     new r_m :   0.3572 (alat units)  5.8934 (a.u.) for type    1
     new r_m :   0.3572 (alat units)  5.8934 (a.u.) for type    2

     Check: negative core charge=   -0.000001

     Initial potential from superposition of free atoms

     starting charge   29.99900, renormalised to   30.00000

     negative rho (up, down):  0.000E+00 5.903E-05
     Starting wfcs are   20 randomized atomic wfcs

     total cpu time spent up to now is       10.3 secs

     Self-consistent Calculation

     iteration #  1     ecut=    60.00 Ry     beta= 0.70
     Davidson diagonalization with overlap
     ethr =  1.00E-02,  avg # of iterations =  1.0

     negative rho (up, down):  5.788E-07 6.681E-03

     total cpu time spent up to now is       27.8 secs

     total energy              =    -424.94293831 Ry
     Harris-Foulkes estimate   =    -427.04344113 Ry
     estimated scf accuracy    <       2.74271351 Ry

     total magnetization       =     0.00 Bohr mag/cell
     absolute magnetization    =     5.98 Bohr mag/cell

     iteration #  2     ecut=    60.00 Ry     beta= 0.70
     Davidson diagonalization with overlap
     ethr =  9.14E-03,  avg # of iterations = 10.8

     total cpu time spent up to now is       77.4 secs

     total energy              =    -423.47110951 Ry
     Harris-Foulkes estimate   =    -433.86868281 Ry
     estimated scf accuracy    <      46.75275087 Ry

     total magnetization       =     0.01 Bohr mag/cell
     absolute magnetization    =     0.51 Bohr mag/cell

     iteration #  3     ecut=    60.00 Ry     beta= 0.70
     Davidson diagonalization with overlap
     ethr =  9.14E-03,  avg # of iterations =  7.5

     total cpu time spent up to now is      106.3 secs

     total energy              =    -424.44075643 Ry
     Harris-Foulkes estimate   =    -425.50576997 Ry
     estimated scf accuracy    <       8.56712289 Ry

     total magnetization       =     0.59 Bohr mag/cell
     absolute magnetization    =     4.74 Bohr mag/cell

     iteration #  4     ecut=    60.00 Ry     beta= 0.70
     Davidson diagonalization with overlap
     ethr =  9.14E-03,  avg # of iterations =  7.0

     total cpu time spent up to now is      131.6 secs

     total energy              =    -426.61307801 Ry
     Harris-Foulkes estimate   =    -426.71782137 Ry
     estimated scf accuracy    <       1.21757727 Ry

     total magnetization       =    -1.49 Bohr mag/cell
     absolute magnetization    =     5.97 Bohr mag/cell

     iteration #  5     ecut=    60.00 Ry     beta= 0.70
     Davidson diagonalization with overlap
     ethr =  4.06E-03,  avg # of iterations =  5.3

     total cpu time spent up to now is      154.0 secs

     total energy              =    -426.91147688 Ry
     Harris-Foulkes estimate   =    -427.00625733 Ry
     estimated scf accuracy    <       1.82401004 Ry

     total magnetization       =    -0.48 Bohr mag/cell
     absolute magnetization    =     6.80 Bohr mag/cell

     iteration #  6     ecut=    60.00 Ry     beta= 0.70
     Davidson diagonalization with overlap
     ethr =  4.06E-03,  avg # of iterations =  1.3

     total cpu time spent up to now is      171.5 secs

     total energy              =    -426.91988142 Ry
     Harris-Foulkes estimate   =    -426.96862369 Ry
     estimated scf accuracy    <       1.66344506 Ry

     total magnetization       =     1.61 Bohr mag/cell
     absolute magnetization    =     9.34 Bohr mag/cell

     iteration #  7     ecut=    60.00 Ry     beta= 0.70
     Davidson diagonalization with overlap
     ethr =  4.06E-03,  avg # of iterations =  1.3

     total cpu time spent up to now is      188.9 secs

     total energy              =    -426.90726721 Ry
     Harris-Foulkes estimate   =    -426.96986583 Ry
     estimated scf accuracy    <       0.27378806 Ry

     total magnetization       =     1.04 Bohr mag/cell
     absolute magnetization    =     9.73 Bohr mag/cell

     iteration #  8     ecut=    60.00 Ry     beta= 0.70
     Davidson diagonalization with overlap
     ethr =  9.13E-04,  avg # of iterations =  3.5

     total cpu time spent up to now is      210.1 secs

     total energy              =    -427.05999344 Ry
     Harris-Foulkes estimate   =    -427.10718449 Ry
     estimated scf accuracy    <       2.98812570 Ry

     total magnetization       =     1.12 Bohr mag/cell
     absolute magnetization    =     5.91 Bohr mag/cell

     iteration #  9     ecut=    60.00 Ry     beta= 0.70
     Davidson diagonalization with overlap
     ethr =  9.13E-04,  avg # of iterations =  1.0

     total cpu time spent up to now is      227.6 secs

     total energy              =    -427.05808995 Ry
     Harris-Foulkes estimate   =    -427.06176037 Ry
     estimated scf accuracy    <       3.08492711 Ry

     total magnetization       =     1.36 Bohr mag/cell
     absolute magnetization    =     5.85 Bohr mag/cell

     iteration # 10     ecut=    60.00 Ry     beta= 0.70
     Davidson diagonalization with overlap
     ethr =  9.13E-04,  avg # of iterations =  1.0

     total cpu time spent up to now is      245.0 secs

     total energy              =    -427.10152475 Ry
     Harris-Foulkes estimate   =    -427.08126011 Ry
     estimated scf accuracy    <       2.43602907 Ry

     total magnetization       =     1.20 Bohr mag/cell
     absolute magnetization    =     8.27 Bohr mag/cell

     iteration # 11     ecut=    60.00 Ry     beta= 0.70
     Davidson diagonalization with overlap
     ethr =  9.13E-04,  avg # of iterations =  1.0

     total cpu time spent up to now is      262.3 secs

     total energy              =    -426.94936378 Ry
     Harris-Foulkes estimate   =    -427.11068828 Ry
     estimated scf accuracy    <       2.88281318 Ry

     total magnetization       =     1.14 Bohr mag/cell
     absolute magnetization    =     6.71 Bohr mag/cell

     iteration # 12     ecut=    60.00 Ry     beta= 0.70
     Davidson diagonalization with overlap
     ethr =  9.13E-04,  avg # of iterations =  1.0

     negative rho (up, down):  0.000E+00 2.309E-04

     total cpu time spent up to now is      280.0 secs

     total energy              =    -427.08643221 Ry
     Harris-Foulkes estimate   =    -427.03500432 Ry
     estimated scf accuracy    <       0.64298355 Ry

     total magnetization       =     0.60 Bohr mag/cell
     absolute magnetization    =    10.07 Bohr mag/cell

     iteration # 13     ecut=    60.00 Ry     beta= 0.70
     Davidson diagonalization with overlap
     ethr =  9.13E-04,  avg # of iterations =  1.5

     negative rho (up, down):  0.000E+00 6.944E-06

     total cpu time spent up to now is      297.4 secs

     total energy              =    -427.01796615 Ry
     Harris-Foulkes estimate   =    -427.09753465 Ry
     estimated scf accuracy    <       0.90526635 Ry

     total magnetization       =     1.44 Bohr mag/cell
     absolute magnetization    =     9.99 Bohr mag/cell

     iteration # 14     ecut=    60.00 Ry     beta= 0.70
     Davidson diagonalization with overlap
     ethr =  9.13E-04,  avg # of iterations =  2.0

     negative rho (up, down):  0.000E+00 5.937E-04

     total cpu time spent up to now is      315.9 secs

     total energy              =    -427.01789401 Ry
     Harris-Foulkes estimate   =    -427.07175527 Ry
     estimated scf accuracy    <       0.17257469 Ry

     total magnetization       =     0.49 Bohr mag/cell
     absolute magnetization    =    10.06 Bohr mag/cell

     iteration # 15     ecut=    60.00 Ry     beta= 0.70
     Davidson diagonalization with overlap
     ethr =  5.75E-04,  avg # of iterations =  2.5

     negative rho (up, down):  0.000E+00 3.967E-01

     total cpu time spent up to now is      335.0 secs

     total energy              =    -427.00896672 Ry
     Harris-Foulkes estimate   =    -427.09598211 Ry
     estimated scf accuracy    <       1.01198283 Ry

     total magnetization       =     1.13 Bohr mag/cell
     absolute magnetization    =     9.99 Bohr mag/cell

     iteration # 16     ecut=    60.00 Ry     beta= 0.70
     Davidson diagonalization with overlap
     ethr =  5.75E-04,  avg # of iterations =  2.4

     negative rho (up, down):  0.000E+00 4.629E-01

     total cpu time spent up to now is      354.1 secs

     total energy              =    -426.93939723 Ry
     Harris-Foulkes estimate   =    -427.02703494 Ry
     estimated scf accuracy    <       1.12527370 Ry

     total magnetization       =     0.97 Bohr mag/cell
     absolute magnetization    =     9.99 Bohr mag/cell

     iteration # 17     ecut=    60.00 Ry     beta= 0.70
     Davidson diagonalization with overlap
     ethr =  5.75E-04,  avg # of iterations =  1.2

     negative rho (up, down):  0.000E+00 4.515E-01

     total cpu time spent up to now is      371.6 secs

     total energy              =    -427.02764726 Ry
     Harris-Foulkes estimate   =    -426.94177001 Ry
     estimated scf accuracy    <       1.09557485 Ry

     total magnetization       =     0.66 Bohr mag/cell
     absolute magnetization    =     9.99 Bohr mag/cell

     iteration # 18     ecut=    60.00 Ry     beta= 0.70
     Davidson diagonalization with overlap
     ethr =  5.75E-04,  avg # of iterations =  1.0

     total cpu time spent up to now is      389.2 secs

     total energy              =    -427.02897773 Ry
     Harris-Foulkes estimate   =    -427.02903697 Ry
     estimated scf accuracy    <       1.08000978 Ry

     total magnetization       =     0.81 Bohr mag/cell
     absolute magnetization    =     9.99 Bohr mag/cell

     iteration # 19     ecut=    60.00 Ry     beta= 0.70
     Davidson diagonalization with overlap
     ethr =  5.75E-04,  avg # of iterations =  2.0

     total cpu time spent up to now is      407.4 secs

     total energy              =    -427.04860747 Ry
     Harris-Foulkes estimate   =    -427.04629181 Ry
     estimated scf accuracy    <       0.45016426 Ry

     total magnetization       =     0.70 Bohr mag/cell
     absolute magnetization    =    10.02 Bohr mag/cell

     iteration # 20     ecut=    60.00 Ry     beta= 0.70
     Davidson diagonalization with overlap
     ethr =  5.75E-04,  avg # of iterations =  1.2

     total cpu time spent up to now is      425.2 secs

     total energy              =    -427.07349126 Ry
     Harris-Foulkes estimate   =    -427.06461682 Ry
     estimated scf accuracy    <       0.05302691 Ry

     total magnetization       =     0.12 Bohr mag/cell
     absolute magnetization    =    10.08 Bohr mag/cell

     iteration # 21     ecut=    60.00 Ry     beta= 0.70
     Davidson diagonalization with overlap
     ethr =  1.77E-04,  avg # of iterations =  4.1

     total cpu time spent up to now is      446.5 secs

     total energy              =    -427.09898566 Ry
     Harris-Foulkes estimate   =    -427.08966322 Ry
     estimated scf accuracy    <       0.03052501 Ry

     total magnetization       =     0.05 Bohr mag/cell
     absolute magnetization    =    10.13 Bohr mag/cell

     iteration # 22     ecut=    60.00 Ry     beta= 0.70
     Davidson diagonalization with overlap
     ethr =  1.02E-04,  avg # of iterations =  1.9

     total cpu time spent up to now is      465.3 secs

     total energy              =    -427.10433668 Ry
     Harris-Foulkes estimate   =    -427.10312857 Ry
     estimated scf accuracy    <       0.04695157 Ry

     total magnetization       =    -0.54 Bohr mag/cell
     absolute magnetization    =    10.13 Bohr mag/cell

     iteration # 23     ecut=    60.00 Ry     beta= 0.70
     Davidson diagonalization with overlap
     ethr =  1.02E-04,  avg # of iterations =  1.0

     total cpu time spent up to now is      482.7 secs

     total energy              =    -427.10409260 Ry
     Harris-Foulkes estimate   =    -427.10450441 Ry
     estimated scf accuracy    <       0.02389039 Ry

     total magnetization       =    -0.44 Bohr mag/cell
     absolute magnetization    =    10.13 Bohr mag/cell

     iteration # 24     ecut=    60.00 Ry     beta= 0.70
     Davidson diagonalization with overlap
     ethr =  7.96E-05,  avg # of iterations =  1.2

     total cpu time spent up to now is      500.4 secs

     total energy              =    -427.10667356 Ry
     Harris-Foulkes estimate   =    -427.10676967 Ry
     estimated scf accuracy    <       0.00424395 Ry

     total magnetization       =    -0.26 Bohr mag/cell
     absolute magnetization    =    10.11 Bohr mag/cell

     iteration # 25     ecut=    60.00 Ry     beta= 0.70
     Davidson diagonalization with overlap
     ethr =  1.41E-05,  avg # of iterations =  4.0

     total cpu time spent up to now is      521.2 secs

     total energy              =    -427.11452806 Ry
     Harris-Foulkes estimate   =    -427.11471373 Ry
     estimated scf accuracy    <       0.00714150 Ry

     total magnetization       =    -0.09 Bohr mag/cell
     absolute magnetization    =    10.13 Bohr mag/cell

     iteration # 26     ecut=    60.00 Ry     beta= 0.70
     Davidson diagonalization with overlap
     ethr =  1.41E-05,  avg # of iterations =  1.2

     total cpu time spent up to now is      538.8 secs

     total energy              =    -427.11975527 Ry
     Harris-Foulkes estimate   =    -427.11941893 Ry
     estimated scf accuracy    <       0.01514071 Ry

     total magnetization       =    -0.01 Bohr mag/cell
     absolute magnetization    =    10.15 Bohr mag/cell

     iteration # 27     ecut=    60.00 Ry     beta= 0.70
     Davidson diagonalization with overlap
     ethr =  1.41E-05,  avg # of iterations =  1.0

     negative rho (up, down):  0.000E+00 6.944E-06

     total cpu time spent up to now is      556.2 secs

     total energy              =    -427.12034069 Ry
     Harris-Foulkes estimate   =    -427.11978770 Ry
     estimated scf accuracy    <       0.01662675 Ry

     total magnetization       =    -0.01 Bohr mag/cell
     absolute magnetization    =    10.15 Bohr mag/cell

     iteration # 28     ecut=    60.00 Ry     beta= 0.70
     Davidson diagonalization with overlap
     ethr =  1.41E-05,  avg # of iterations =  1.1

     negative rho (up, down):  0.000E+00 6.944E-06

     total cpu time spent up to now is      573.8 secs

     total energy              =    -427.12074761 Ry
     Harris-Foulkes estimate   =    -427.12046319 Ry
     estimated scf accuracy    <       0.02064753 Ry

     total magnetization       =     0.03 Bohr mag/cell
     absolute magnetization    =    10.14 Bohr mag/cell

     iteration # 29     ecut=    60.00 Ry     beta= 0.70
     Davidson diagonalization with overlap
     ethr =  1.41E-05,  avg # of iterations =  1.0

     negative rho (up, down):  0.000E+00 6.944E-06

     total cpu time spent up to now is      591.5 secs

     total energy              =    -427.12110116 Ry
     Harris-Foulkes estimate   =    -427.12080077 Ry
     estimated scf accuracy    <       0.02306464 Ry

     total magnetization       =     0.05 Bohr mag/cell
     absolute magnetization    =    10.14 Bohr mag/cell

     iteration # 30     ecut=    60.00 Ry     beta= 0.70
     Davidson diagonalization with overlap
     ethr =  1.41E-05,  avg # of iterations =  1.0

     negative rho (up, down):  0.000E+00 6.944E-06

     total cpu time spent up to now is      609.0 secs

     total energy              =    -427.12143762 Ry
     Harris-Foulkes estimate   =    -427.12112533 Ry
     estimated scf accuracy    <       0.02506083 Ry

     total magnetization       =     0.07 Bohr mag/cell
     absolute magnetization    =    10.14 Bohr mag/cell

     iteration # 31     ecut=    60.00 Ry     beta= 0.70
     Davidson diagonalization with overlap
     ethr =  1.41E-05,  avg # of iterations =  1.0

     total cpu time spent up to now is      626.7 secs

     total energy              =    -427.12130825 Ry
     Harris-Foulkes estimate   =    -427.12145765 Ry
     estimated scf accuracy    <       0.02677003 Ry

     total magnetization       =     0.08 Bohr mag/cell
     absolute magnetization    =    10.14 Bohr mag/cell

     iteration # 32     ecut=    60.00 Ry     beta= 0.70
     Davidson diagonalization with overlap
     ethr =  1.41E-05,  avg # of iterations =  1.0

     total cpu time spent up to now is      644.3 secs

     total energy              =    -427.12130587 Ry
     Harris-Foulkes estimate   =    -427.12131825 Ry
     estimated scf accuracy    <       0.02768506 Ry

     total magnetization       =     0.09 Bohr mag/cell
     absolute magnetization    =    10.14 Bohr mag/cell

     iteration # 33     ecut=    60.00 Ry     beta= 0.70
     Davidson diagonalization with overlap
     ethr =  1.41E-05,  avg # of iterations =  1.0

     total cpu time spent up to now is      662.0 secs

     total energy              =    -427.12100186 Ry
     Harris-Foulkes estimate   =    -427.12130902 Ry
     estimated scf accuracy    <       0.02792580 Ry

     total magnetization       =     0.09 Bohr mag/cell
     absolute magnetization    =    10.14 Bohr mag/cell

     iteration # 34     ecut=    60.00 Ry     beta= 0.70
     Davidson diagonalization with overlap
     ethr =  1.41E-05,  avg # of iterations =  1.0

     total cpu time spent up to now is      679.5 secs

     total energy              =    -427.10525672 Ry
     Harris-Foulkes estimate   =    -427.12102444 Ry
     estimated scf accuracy    <       0.02552882 Ry

     total magnetization       =     0.07 Bohr mag/cell
     absolute magnetization    =    10.14 Bohr mag/cell

     iteration # 35     ecut=    60.00 Ry     beta= 0.70
     Davidson diagonalization with overlap
     ethr =  1.41E-05,  avg # of iterations =  4.0

     total cpu time spent up to now is      708.2 secs

     total energy              =    -427.09479184 Ry
     Harris-Foulkes estimate   =    -427.12832186 Ry
     estimated scf accuracy    <       0.16313577 Ry

     total magnetization       =     0.61 Bohr mag/cell
     absolute magnetization    =    10.04 Bohr mag/cell

     iteration # 36     ecut=    60.00 Ry     beta= 0.70
     Davidson diagonalization with overlap
     ethr =  1.41E-05,  avg # of iterations =  4.1

     negative rho (up, down):  0.000E+00 5.729E-05

     total cpu time spent up to now is      735.6 secs

     total energy              =    -427.11733834 Ry
     Harris-Foulkes estimate   =    -427.11733819 Ry
     estimated scf accuracy    <       0.00525296 Ry

     total magnetization       =    -0.11 Bohr mag/cell
     absolute magnetization    =    10.16 Bohr mag/cell

     iteration # 37     ecut=    60.00 Ry     beta= 0.70
     Davidson diagonalization with overlap
     ethr =  1.41E-05,  avg # of iterations =  1.0

     negative rho (up, down):  0.000E+00 2.951E-05

     total cpu time spent up to now is      753.1 secs

     total energy              =    -427.11708421 Ry
     Harris-Foulkes estimate   =    -427.11747664 Ry
     estimated scf accuracy    <       0.00320939 Ry

     total magnetization       =    -0.10 Bohr mag/cell
     absolute magnetization    =    10.16 Bohr mag/cell

     iteration # 38     ecut=    60.00 Ry     beta= 0.70
     Davidson diagonalization with overlap
     ethr =  1.07E-05,  avg # of iterations =  1.0

     negative rho (up, down):  0.000E+00 2.083E-05

     total cpu time spent up to now is      770.8 secs

     total energy              =    -427.11698193 Ry
     Harris-Foulkes estimate   =    -427.11717199 Ry
     estimated scf accuracy    <       0.00211441 Ry

     total magnetization       =    -0.11 Bohr mag/cell
     absolute magnetization    =    10.16 Bohr mag/cell

     iteration # 39     ecut=    60.00 Ry     beta= 0.70
     Davidson diagonalization with overlap
     ethr =  7.05E-06,  avg # of iterations =  1.2

     negative rho (up, down):  0.000E+00 2.083E-05

     total cpu time spent up to now is      788.7 secs

     total energy              =    -427.11828951 Ry
     Harris-Foulkes estimate   =    -427.11864528 Ry
     estimated scf accuracy    <       0.00227346 Ry

     total magnetization       =    -0.06 Bohr mag/cell
     absolute magnetization    =    10.18 Bohr mag/cell

     iteration # 40     ecut=    60.00 Ry     beta= 0.70
     Davidson diagonalization with overlap
     ethr =  7.05E-06,  avg # of iterations =  2.0

     negative rho (up, down):  0.000E+00 2.778E-05

     total cpu time spent up to now is      807.8 secs

     total energy              =    -427.11857830 Ry
     Harris-Foulkes estimate   =    -427.11844746 Ry
     estimated scf accuracy    <       0.00105474 Ry

     total magnetization       =    -0.07 Bohr mag/cell
     absolute magnetization    =    10.17 Bohr mag/cell

     iteration # 41     ecut=    60.00 Ry     beta= 0.70
     Davidson diagonalization with overlap
     ethr =  3.52E-06,  avg # of iterations =  1.2

     negative rho (up, down):  0.000E+00 2.083E-05

     total cpu time spent up to now is      825.8 secs

     total energy              =    -427.12002925 Ry
     Harris-Foulkes estimate   =    -427.12019025 Ry
     estimated scf accuracy    <       0.00292100 Ry

     total magnetization       =    -0.01 Bohr mag/cell
     absolute magnetization    =    10.19 Bohr mag/cell

     iteration # 42     ecut=    60.00 Ry     beta= 0.70
     Davidson diagonalization with overlap
     ethr =  3.52E-06,  avg # of iterations =  1.0

     negative rho (up, down):  0.000E+00 6.944E-06

     total cpu time spent up to now is      843.3 secs

     total energy              =    -427.12046600 Ry
     Harris-Foulkes estimate   =    -427.12004340 Ry
     estimated scf accuracy    <       0.00240963 Ry

     total magnetization       =    -0.01 Bohr mag/cell
     absolute magnetization    =    10.19 Bohr mag/cell

     iteration # 43     ecut=    60.00 Ry     beta= 0.70
     Davidson diagonalization with overlap
     ethr =  3.52E-06,  avg # of iterations =  2.0

     negative rho (up, down):  0.000E+00 4.167E-05

     total cpu time spent up to now is      862.7 secs

     total energy              =    -427.12052698 Ry
     Harris-Foulkes estimate   =    -427.12061774 Ry
     estimated scf accuracy    <       0.00569514 Ry

     total magnetization       =     0.04 Bohr mag/cell
     absolute magnetization    =    10.19 Bohr mag/cell

     iteration # 44     ecut=    60.00 Ry     beta= 0.70
     Davidson diagonalization with overlap
     ethr =  3.52E-06,  avg # of iterations =  1.0

     negative rho (up, down):  0.000E+00 2.778E-05

     total cpu time spent up to now is      880.6 secs

     total energy              =    -427.11991150 Ry
     Harris-Foulkes estimate   =    -427.12054078 Ry
     estimated scf accuracy    <       0.00499453 Ry

     total magnetization       =     0.05 Bohr mag/cell
     absolute magnetization    =    10.19 Bohr mag/cell

     iteration # 45     ecut=    60.00 Ry     beta= 0.70
     Davidson diagonalization with overlap
     ethr =  3.52E-06,  avg # of iterations =  2.0

     negative rho (up, down):  0.000E+00 2.778E-05

     total cpu time spent up to now is      899.1 secs

     total energy              =    -427.11994698 Ry
     Harris-Foulkes estimate   =    -427.12001872 Ry
     estimated scf accuracy    <       0.00283382 Ry

     total magnetization       =     0.05 Bohr mag/cell
     absolute magnetization    =    10.19 Bohr mag/cell

     iteration # 46     ecut=    60.00 Ry     beta= 0.70
     Davidson diagonalization with overlap
     ethr =  3.52E-06,  avg # of iterations =  1.0

     negative rho (up, down):  0.000E+00 1.389E-05

     total cpu time spent up to now is      916.9 secs

     total energy              =    -427.11986689 Ry
     Harris-Foulkes estimate   =    -427.11995719 Ry
     estimated scf accuracy    <       0.00245645 Ry

     total magnetization       =     0.05 Bohr mag/cell
     absolute magnetization    =    10.19 Bohr mag/cell

     iteration # 47     ecut=    60.00 Ry     beta= 0.70
     Davidson diagonalization with overlap
     ethr =  3.52E-06,  avg # of iterations =  1.0

     negative rho (up, down):  0.000E+00 2.778E-05

     total cpu time spent up to now is      934.5 secs

     total energy              =    -427.11975522 Ry
     Harris-Foulkes estimate   =    -427.11988174 Ry
     estimated scf accuracy    <       0.00183220 Ry

     total magnetization       =     0.05 Bohr mag/cell
     absolute magnetization    =    10.18 Bohr mag/cell

     iteration # 48     ecut=    60.00 Ry     beta= 0.70
     Davidson diagonalization with overlap
     ethr =  3.52E-06,  avg # of iterations =  1.0

     negative rho (up, down):  0.000E+00 2.778E-05

     total cpu time spent up to now is      951.9 secs

     total energy              =    -427.11971895 Ry
     Harris-Foulkes estimate   =    -427.11979089 Ry
     estimated scf accuracy    <       0.00082775 Ry

     total magnetization       =     0.03 Bohr mag/cell
     absolute magnetization    =    10.18 Bohr mag/cell

     iteration # 49     ecut=    60.00 Ry     beta= 0.70
     Davidson diagonalization with overlap
     ethr =  2.76E-06,  avg # of iterations =  1.6

     negative rho (up, down):  0.000E+00 4.340E-05

     total cpu time spent up to now is      970.4 secs

     total energy              =    -427.11972198 Ry
     Harris-Foulkes estimate   =    -427.11976503 Ry
     estimated scf accuracy    <       0.00037038 Ry

     total magnetization       =     0.03 Bohr mag/cell
     absolute magnetization    =    10.18 Bohr mag/cell

     iteration # 50     ecut=    60.00 Ry     beta= 0.70
     Davidson diagonalization with overlap
     ethr =  1.23E-06,  avg # of iterations =  2.7

     negative rho (up, down):  0.000E+00 4.514E-05

     total cpu time spent up to now is      990.7 secs

     total energy              =    -427.11976400 Ry
     Harris-Foulkes estimate   =    -427.11981378 Ry
     estimated scf accuracy    <       0.00016968 Ry

     total magnetization       =    -0.02 Bohr mag/cell
     absolute magnetization    =    10.17 Bohr mag/cell

     iteration # 51     ecut=    60.00 Ry     beta= 0.70
     Davidson diagonalization with overlap
     ethr =  5.66E-07,  avg # of iterations =  2.0

     negative rho (up, down):  0.000E+00 4.514E-05

     total cpu time spent up to now is     1008.7 secs

     total energy              =    -427.11978678 Ry
     Harris-Foulkes estimate   =    -427.11979510 Ry
     estimated scf accuracy    <       0.00001508 Ry

     total magnetization       =    -0.00 Bohr mag/cell
     absolute magnetization    =    10.18 Bohr mag/cell

     iteration # 52     ecut=    60.00 Ry     beta= 0.70
     Davidson diagonalization with overlap
     ethr =  5.03E-08,  avg # of iterations =  3.6

     negative rho (up, down):  0.000E+00 4.514E-05

     total cpu time spent up to now is     1031.0 secs

     total energy              =    -427.11979828 Ry
     Harris-Foulkes estimate   =    -427.11979815 Ry
     estimated scf accuracy    <       0.00001370 Ry

     total magnetization       =    -0.01 Bohr mag/cell
     absolute magnetization    =    10.18 Bohr mag/cell

     iteration # 53     ecut=    60.00 Ry     beta= 0.70
     Davidson diagonalization with overlap
     ethr =  4.57E-08,  avg # of iterations =  1.3

     negative rho (up, down):  0.000E+00 4.514E-05

     total cpu time spent up to now is     1048.7 secs

     total energy              =    -427.11979971 Ry
     Harris-Foulkes estimate   =    -427.11980039 Ry
     estimated scf accuracy    <       0.00000217 Ry

     total magnetization       =    -0.01 Bohr mag/cell
     absolute magnetization    =    10.17 Bohr mag/cell

     iteration # 54     ecut=    60.00 Ry     beta= 0.70
     Davidson diagonalization with overlap
     ethr =  7.25E-09,  avg # of iterations =  3.5

     negative rho (up, down):  0.000E+00 4.514E-05

     Magnetic moment per site:
     atom:    1    charge:   14.9625    magn:    5.0118    constr:    0.0000
     atom:    2    charge:   14.9564    magn:   -5.0181    constr:    0.0000

     total cpu time spent up to now is     1068.7 secs

     End of self-consistent calculation

 ------ SPIN UP ------------


          k = 0.0625 0.0625 0.0625 ( 35261 PWs)   bands (ev):

   -86.4869 -81.0992 -55.1891 -55.1891 -55.1891 -49.9204 -49.9204 -49.9204
    -7.1833  -7.1833  -7.1821  -7.1821  -7.1821  -4.5091  -3.4824  -2.7540
    -2.7540  -2.7529  -2.7529

          k = 0.0625 0.0625 0.1875 ( 35259 PWs)   bands (ev):

   -86.4869 -81.0992 -55.1891 -55.1891 -55.1891 -49.9204 -49.9204 -49.9204
    -7.1833  -7.1832  -7.1822  -7.1821  -7.1821  -4.5066  -3.4807  -2.7539
    -2.7534  -2.7531  -2.7530

          k = 0.0625 0.0625 0.3125 ( 35252 PWs)   bands (ev):

   -86.4869 -81.0992 -55.1891 -55.1891 -55.1891 -49.9204 -49.9204 -49.9204
    -7.1833  -7.1832  -7.1822  -7.1822  -7.1822  -4.5030  -3.4782  -2.7539
    -2.7534  -2.7532  -2.7525

          k = 0.0625 0.0625 0.4375 ( 35264 PWs)   bands (ev):

   -86.4869 -81.0992 -55.1891 -55.1891 -55.1891 -49.9204 -49.9204 -49.9204
    -7.1833  -7.1832  -7.1822  -7.1822  -7.1822  -4.5004  -3.4764  -2.7538
    -2.7536  -2.7535  -2.7519

          k = 0.0625 0.1875 0.1875 ( 35231 PWs)   bands (ev):

   -86.4869 -81.0992 -55.1891 -55.1891 -55.1891 -49.9204 -49.9204 -49.9204
    -7.1833  -7.1832  -7.1822  -7.1821  -7.1821  -4.5042  -3.4781  -2.7536
    -2.7533  -2.7531  -2.7530

          k = 0.0625 0.1875 0.3125 ( 35241 PWs)   bands (ev):

   -86.4869 -81.0992 -55.1891 -55.1891 -55.1891 -49.9204 -49.9204 -49.9204
    -7.1833  -7.1832  -7.1822  -7.1822  -7.1821  -4.5009  -3.4746  -2.7535
    -2.7535  -2.7532  -2.7523

          k = 0.0625 0.1875 0.4375 ( 35250 PWs)   bands (ev):

   -86.4869 -81.0992 -55.1891 -55.1891 -55.1891 -49.9204 -49.9204 -49.9204
    -7.1832  -7.1831  -7.1822  -7.1822  -7.1821  -4.4985  -3.4721  -2.7537
    -2.7535  -2.7534  -2.7517

          k = 0.0625 0.3125 0.3125 ( 35221 PWs)   bands (ev):

   -86.4869 -81.0992 -55.1891 -55.1891 -55.1891 -49.9204 -49.9204 -49.9204
    -7.1832  -7.1831  -7.1822  -7.1822  -7.1821  -4.4979  -3.4695  -2.7537
    -2.7533  -2.7533  -2.7531

          k = 0.0625 0.3125 0.4375 ( 35204 PWs)   bands (ev):

   -86.4869 -81.0992 -55.1891 -55.1891 -55.1891 -49.9204 -49.9204 -49.9204
    -7.1832  -7.1831  -7.1822  -7.1822  -7.1821  -4.4958  -3.4659  -2.7539
    -2.7535  -2.7532  -2.7530

          k = 0.0625 0.4375 0.4375 ( 35247 PWs)   bands (ev):

   -86.4869 -81.0992 -55.1891 -55.1891 -55.1891 -49.9204 -49.9204 -49.9204
    -7.1832  -7.1831  -7.1822  -7.1822  -7.1822  -4.4939  -3.4615  -2.7540
    -2.7535  -2.7535  -2.7528

          k = 0.1875 0.1875 0.1875 ( 35246 PWs)   bands (ev):

   -86.4869 -81.0992 -55.1891 -55.1891 -55.1891 -49.9204 -49.9204 -49.9204
    -7.1832  -7.1832  -7.1822  -7.1822  -7.1822  -4.5020  -3.4752  -2.7533
    -2.7532  -2.7530  -2.7530

          k = 0.1875 0.1875 0.3125 ( 35222 PWs)   bands (ev):

   -86.4869 -81.0992 -55.1891 -55.1891 -55.1891 -49.9204 -49.9204 -49.9204
    -7.1832  -7.1831  -7.1822  -7.1822  -7.1822  -4.4989  -3.4709  -2.7536
    -2.7534  -2.7530  -2.7522

          k = 0.1875 0.1875 0.4375 ( 35247 PWs)   bands (ev):

   -86.4869 -81.0992 -55.1891 -55.1891 -55.1891 -49.9204 -49.9204 -49.9204
    -7.1832  -7.1831  -7.1822  -7.1822  -7.1822  -4.4967  -3.4679  -2.7539
    -2.7536  -2.7532  -2.7530

          k = 0.1875 0.3125 0.3125 ( 35241 PWs)   bands (ev):

   -86.4869 -81.0992 -55.1891 -55.1891 -55.1891 -49.9204 -49.9204 -49.9204
    -7.1832  -7.1831  -7.1822  -7.1822  -7.1822  -4.4960  -3.4656  -2.7538
    -2.7535  -2.7525  -2.7517

          k = 0.1875 0.3125 0.4375 ( 35246 PWs)   bands (ev):

   -86.4869 -81.0992 -55.1891 -55.1891 -55.1891 -49.9204 -49.9204 -49.9204
    -7.1832  -7.1831  -7.1822  -7.1822  -7.1822  -4.4940  -3.4619  -2.7540
    -2.7537  -2.7535  -2.7524

          k = 0.1875 0.4375 0.4375 ( 35218 PWs)   bands (ev):

   -86.4869 -81.0992 -55.1891 -55.1891 -55.1891 -49.9204 -49.9204 -49.9204
    -7.1832  -7.1831  -7.1822  -7.1822  -7.1822  -4.4922  -3.4576  -2.7541
    -2.7537  -2.7537  -2.7522

          k = 0.3125 0.3125 0.3125 ( 35220 PWs)   bands (ev):

   -86.4869 -81.0992 -55.1891 -55.1891 -55.1891 -49.9204 -49.9204 -49.9204
    -7.1831  -7.1831  -7.1822  -7.1822  -7.1822  -4.4934  -2.7539  -2.7539
    -2.7536  -2.7517  -2.7517

          k = 0.3125 0.3125 0.4375 ( 35226 PWs)   bands (ev):

   -86.4869 -81.0992 -55.1891 -55.1891 -55.1891 -49.9204 -49.9204 -49.9204
    -7.1831  -7.1831  -7.1822  -7.1822  -7.1822  -4.4915  -3.4562  -2.7542
    -2.7540  -2.7538  -2.7517

          k = 0.3125 0.4375 0.4375 ( 35216 PWs)   bands (ev):

   -86.4869 -81.0992 -55.1891 -55.1891 -55.1891 -49.9204 -49.9204 -49.9204
    -7.1831  -7.1831  -7.1822  -7.1822  -7.1822  -4.4897  -3.4521  -2.7543
    -2.7541  -2.7541  -2.7514

          k = 0.4375 0.4375 0.4375 ( 35217 PWs)   bands (ev):

   -86.4869 -81.0992 -55.1891 -55.1891 -55.1891 -49.9204 -49.9204 -49.9204
    -7.1831  -7.1831  -7.1822  -7.1822  -7.1822  -4.4879  -3.4482  -2.7544
    -2.7544  -2.7544  -2.7507

 ------ SPIN DOWN ----------


          k = 0.0625 0.0625 0.0625 ( 35261 PWs)   bands (ev):

   -86.4753 -81.0996 -55.1790 -55.1790 -55.1790 -49.9198 -49.9198 -49.9198
    -7.1794  -7.1794  -7.1788  -7.1788  -7.1788  -4.5265  -3.4791  -2.7498
    -2.7498  -2.7497  -2.7497

          k = 0.0625 0.0625 0.1875 ( 35259 PWs)   bands (ev):

   -86.4753 -81.0996 -55.1790 -55.1790 -55.1790 -49.9198 -49.9198 -49.9198
    -7.1794  -7.1794  -7.1789  -7.1788  -7.1788  -4.5240  -3.4773  -2.7499
    -2.7498  -2.7497  -2.7493

          k = 0.0625 0.0625 0.3125 ( 35252 PWs)   bands (ev):

   -86.4753 -81.0996 -55.1790 -55.1790 -55.1790 -49.9198 -49.9198 -49.9198
    -7.1794  -7.1793  -7.1789  -7.1789  -7.1788  -4.5204  -3.4748  -2.7502
    -2.7500  -2.7498  -2.7484

          k = 0.0625 0.0625 0.4375 ( 35264 PWs)   bands (ev):

   -86.4753 -81.0996 -55.1790 -55.1790 -55.1790 -49.9198 -49.9198 -49.9198
    -7.1794  -7.1793  -7.1789  -7.1789  -7.1789  -4.5179  -3.4730  -2.7504
    -2.7501  -2.7497  -2.7478

          k = 0.0625 0.1875 0.1875 ( 35231 PWs)   bands (ev):

   -86.4753 -81.0996 -55.1790 -55.1790 -55.1790 -49.9198 -49.9198 -49.9198
    -7.1794  -7.1793  -7.1788  -7.1788  -7.1788  -4.5217  -3.4748  -2.7501
    -2.7499  -2.7495  -2.7489

          k = 0.0625 0.1875 0.3125 ( 35241 PWs)   bands (ev):

   -86.4753 -81.0996 -55.1790 -55.1790 -55.1790 -49.9198 -49.9198 -49.9198
    -7.1794  -7.1793  -7.1789  -7.1789  -7.1788  -4.5184  -3.4712  -2.7504
    -2.7500  -2.7494  -2.7484

          k = 0.0625 0.1875 0.4375 ( 35250 PWs)   bands (ev):

   -86.4753 -81.0996 -55.1790 -55.1790 -55.1790 -49.9198 -49.9198 -49.9198
    -7.1794  -7.1793  -7.1789  -7.1789  -7.1788  -4.5160  -3.4686  -2.7506
    -2.7504  -2.7493  -2.7487

          k = 0.0625 0.3125 0.3125 ( 35221 PWs)   bands (ev):

   -86.4753 -81.0996 -55.1790 -55.1790 -55.1790 -49.9198 -49.9198 -49.9198
    -7.1793  -7.1792  -7.1789  -7.1789  -7.1788  -4.5154  -3.4661  -2.7506
    -2.7501  -2.7490  -2.7477

          k = 0.0625 0.3125 0.4375 ( 35204 PWs)   bands (ev):

   -86.4753 -81.0996 -55.1790 -55.1790 -55.1790 -49.9198 -49.9198 -49.9198
    -7.1793  -7.1792  -7.1789  -7.1789  -7.1788  -4.5134  -3.4624  -2.7507
    -2.7503  -2.7488  -2.7471

          k = 0.0625 0.4375 0.4375 ( 35247 PWs)   bands (ev):

   -86.4753 -81.0996 -55.1790 -55.1790 -55.1790 -49.9198 -49.9198 -49.9198
    -7.1793  -7.1792  -7.1789  -7.1789  -7.1789  -4.5115  -3.4580  -2.7508
    -2.7503  -2.7502  -2.7486

          k = 0.1875 0.1875 0.1875 ( 35246 PWs)   bands (ev):

   -86.4753 -81.0996 -55.1790 -55.1790 -55.1790 -49.9198 -49.9198 -49.9198
    -7.1793  -7.1793  -7.1789  -7.1789  -7.1788  -4.5195  -3.4718  -2.7501
    -2.7501  -2.7489  -2.7489

          k = 0.1875 0.1875 0.3125 ( 35222 PWs)   bands (ev):

   -86.4753 -81.0996 -55.1790 -55.1790 -55.1790 -49.9198 -49.9198 -49.9198
    -7.1793  -7.1793  -7.1789  -7.1788  -7.1788  -4.5164  -3.4675  -2.7505
    -2.7503  -2.7489  -2.7480

          k = 0.1875 0.1875 0.4375 ( 35247 PWs)   bands (ev):

   -86.4753 -81.0996 -55.1790 -55.1790 -55.1790 -49.9198 -49.9198 -49.9198
    -7.1793  -7.1793  -7.1789  -7.1789  -7.1789  -4.5142  -3.4644  -2.7507
    -2.7504  -2.7488  -2.7474

          k = 0.1875 0.3125 0.3125 ( 35241 PWs)   bands (ev):

   -86.4753 -81.0996 -55.1790 -55.1790 -55.1790 -49.9198 -49.9198 -49.9198
    -7.1793  -7.1793  -7.1789  -7.1789  -7.1789  -4.5136  -3.4622  -2.7507
    -2.7504  -2.7484  -2.7476

          k = 0.1875 0.3125 0.4375 ( 35246 PWs)   bands (ev):

   -86.4753 -81.0996 -55.1790 -55.1790 -55.1790 -49.9198 -49.9198 -49.9198
    -7.1793  -7.1792  -7.1789  -7.1789  -7.1789  -4.5116  -3.4584  -2.7509
    -2.7505  -2.7504  -2.7483

          k = 0.1875 0.4375 0.4375 ( 35218 PWs)   bands (ev):

   -86.4753 -81.0996 -55.1790 -55.1790 -55.1790 -49.9198 -49.9198 -49.9198
    -7.1793  -7.1792  -7.1789  -7.1789  -7.1789  -4.5097  -3.4541  -2.7510
    -2.7506  -2.7506  -2.7481

          k = 0.3125 0.3125 0.3125 ( 35220 PWs)   bands (ev):

   -86.4753 -81.0996 -55.1790 -55.1790 -55.1790 -49.9198 -49.9198 -49.9198
    -7.1793  -7.1793  -7.1789  -7.1789  -7.1789  -4.5109  -3.4566  -2.7508
    -2.7508  -2.7476  -2.7476

          k = 0.3125 0.3125 0.4375 ( 35226 PWs)   bands (ev):

   -86.4753 -81.0996 -55.1790 -55.1790 -55.1790 -49.9198 -49.9198 -49.9198
    -7.1793  -7.1792  -7.1789  -7.1789  -7.1789  -4.5091  -3.4527  -2.7510
    -2.7508  -2.7475  -2.7470

          k = 0.3125 0.4375 0.4375 ( 35216 PWs)   bands (ev):

   -86.4753 -81.0996 -55.1790 -55.1790 -55.1790 -49.9198 -49.9198 -49.9198
    -7.1792  -7.1792  -7.1789  -7.1789  -7.1789  -4.5073  -3.4486  -2.7511
    -2.7510  -2.7509  -2.7472

          k = 0.4375 0.4375 0.4375 ( 35217 PWs)   bands (ev):

   -86.4753 -81.0996 -55.1790 -55.1790 -55.1790 -49.9198 -49.9198 -49.9198
    -7.1792  -7.1792  -7.1789  -7.1789  -7.1789  -4.5055  -3.4446  -2.7513
    -2.7512  -2.7512  -2.7466

     the Fermi energy is    -3.0970 ev

!    total energy              =    -427.11980028 Ry
     Harris-Foulkes estimate   =    -427.11980045 Ry
     estimated scf accuracy    <       0.00000031 Ry

     The total energy is the sum of the following terms:

     one-electron contribution =    -529.31760169 Ry
     hartree contribution      =     256.88208221 Ry
     xc contribution           =     -55.42580952 Ry
     ewald contribution        =     -99.26801022 Ry
     smearing contrib. (-TS)   =       0.00953895 Ry

     total magnetization       =    -0.01 Bohr mag/cell
     absolute magnetization    =    10.18 Bohr mag/cell

     convergence has been achieved in  54 iterations

     Writing output data file mn-8.73.save/

     init_run     :      8.28s CPU      8.78s WALL (       1 calls)
     electrons    :   1010.14s CPU   1058.46s WALL (       1 calls)

     Called by init_run:
     wfcinit      :      4.79s CPU      4.90s WALL (       1 calls)
     potinit      :      1.18s CPU      1.23s WALL (       1 calls)
     hinit0       :      0.96s CPU      0.98s WALL (       1 calls)

     Called by electrons:
     c_bands      :    643.27s CPU    654.06s WALL (      54 calls)
     sum_band     :    255.46s CPU    275.49s WALL (      54 calls)
     v_of_rho     :     40.92s CPU     42.06s WALL (      55 calls)
     newd         :     58.87s CPU     75.24s WALL (      55 calls)
     mix_rho      :      8.69s CPU      8.85s WALL (      54 calls)

     Called by c_bands:
     init_us_2    :      9.75s CPU      9.84s WALL (    4360 calls)
     cegterg      :    604.16s CPU    614.76s WALL (    2160 calls)

     Called by sum_band:
     sum_band:bec :      0.05s CPU      0.05s WALL (    2160 calls)
     addusdens    :    146.54s CPU    163.90s WALL (      54 calls)

     Called by *egterg:
     h_psi        :    399.97s CPU    410.04s WALL (    6806 calls)
     s_psi        :     35.36s CPU     35.49s WALL (    6806 calls)
     g_psi        :      3.03s CPU      3.05s WALL (    4606 calls)
     cdiaghg      :      4.22s CPU      4.25s WALL (    6766 calls)

     Called by h_psi:
     h_psi:pot    :    397.90s CPU    407.94s WALL (    6806 calls)
     h_psi:calbec :     51.71s CPU     52.17s WALL (    6806 calls)
     vloc_psi     :    310.04s CPU    319.54s WALL (    6806 calls)
     add_vuspsi   :     36.07s CPU     36.21s WALL (    6806 calls)

     General routines
     calbec       :     73.16s CPU     73.77s WALL (    8966 calls)
     fft          :     27.96s CPU     29.11s WALL (    1369 calls)
     ffts         :      0.88s CPU      0.90s WALL (     218 calls)
     fftw         :    338.46s CPU    348.93s WALL (  232264 calls)
     interpolate  :      3.11s CPU      3.19s WALL (     110 calls)

     Parallel routines
     fft_scatt_xy :     41.89s CPU     43.07s WALL (  233851 calls)
     fft_scatt_yz :    149.97s CPU    155.27s WALL (  233851 calls)

     PWSCF        :  17m 0.17s CPU  17m49.35s WALL


   This run was terminated on:  22:41:45  28May2022            

=------------------------------------------------------------------------------=
   JOB DONE.
=------------------------------------------------------------------------------=
