
     Program PWSCF v.6.4.1 starts on 29May2022 at  2: 5:30 

     This program is part of the open-source Quantum ESPRESSO suite
     for quantum simulation of materials; please cite
         "P. Giannozzi et al., J. Phys.:Condens. Matter 21 395502 (2009);
         "P. Giannozzi et al., J. Phys.:Condens. Matter 29 465901 (2017);
          URL http://www.quantum-espresso.org", 
     in publications or presentations arising from this work. More details at
     http://www.quantum-espresso.org/quote

     Parallel version (MPI), running on     6 processors

     MPI processes distributed on     1 nodes
     R & G space division:  proc/nbgrp/npool/nimage =       6
     Reading input from mn-8.95.in

     Current dimensions of program PWSCF are:
     Max number of different atomic species (ntypx) = 10
     Max number of k-points (npk) =  40000
     Max angular momentum in pseudopotentials (lmaxx) =  3
               file Mn.pbe-spn-rrkjus_psl.0.3.1.UPF: wavefunction(s)  3D renormalized
               file Mn.pbe-spn-rrkjus_psl.0.3.1.UPF: wavefunction(s)  3D renormalized

     Subspace diagonalization in iterative solution of the eigenvalue problem:
     a serial algorithm will be used

     Message from routine setup:
     DEPRECATED: symmetry with ibrav=0, use correct ibrav instead

     Parallelization info
     --------------------
     sticks:   dense  smooth     PW     G-vecs:    dense   smooth      PW
     Min        1818     909    245               143204    50561    7035
     Max        1819     910    247               143207    50564    7036
     Sum       10909    5457   1473               859233   303379   42211



     bravais-lattice index     =            0
     lattice parameter (alat)  =      16.9130  a.u.
     unit-cell volume          =    4837.9983 (a.u.)^3
     number of atoms/cell      =            2
     number of atomic types    =            2
     number of electrons       =        30.00
     number of Kohn-Sham states=           19
     kinetic-energy cutoff     =      60.0000  Ry
     charge density cutoff     =     480.0000  Ry
     convergence threshold     =      1.0E-06
     mixing beta               =       0.7000
     number of iterations used =            8  plain     mixing
     Exchange-correlation      = PBE ( 1  4  3  4 0 0)

     celldm(1)=  16.913049  celldm(2)=   0.000000  celldm(3)=   0.000000
     celldm(4)=   0.000000  celldm(5)=   0.000000  celldm(6)=   0.000000

     crystal axes: (cart. coord. in units of alat)
               a(1) = (   1.000000   0.000000   0.000000 )  
               a(2) = (   0.000000   1.000000   0.000000 )  
               a(3) = (   0.000000   0.000000   1.000000 )  

     reciprocal axes: (cart. coord. in units 2 pi/alat)
               b(1) = (  1.000000  0.000000  0.000000 )  
               b(2) = (  0.000000  1.000000  0.000000 )  
               b(3) = (  0.000000  0.000000  1.000000 )  


     PseudoPot. # 1 for Mn read from file:
     /home/cristian/Escritorio/Proyecto_Grafeno/pseudopotenciales/Mn.pbe-spn-rrkjus_psl.0.3.1.UPF
     MD5 check sum: e1cac159bdd2ba70c18e85765a5d4279
     Pseudo is Ultrasoft + core correction, Zval = 15.0
     Generated using "atomic" code by A. Dal Corso v.6.2.2
     Using radial grid of 1187 points,  6 beta functions with: 
                l(1) =   0
                l(2) =   0
                l(3) =   1
                l(4) =   1
                l(5) =   2
                l(6) =   2
     Q(r) pseudized with 0 coefficients 


     PseudoPot. # 2 for Mn read from file:
     /home/cristian/Escritorio/Proyecto_Grafeno/pseudopotenciales/Mn.pbe-spn-rrkjus_psl.0.3.1.UPF
     MD5 check sum: e1cac159bdd2ba70c18e85765a5d4279
     Pseudo is Ultrasoft + core correction, Zval = 15.0
     Generated using "atomic" code by A. Dal Corso v.6.2.2
     Using radial grid of 1187 points,  6 beta functions with: 
                l(1) =   0
                l(2) =   0
                l(3) =   1
                l(4) =   1
                l(5) =   2
                l(6) =   2
     Q(r) pseudized with 0 coefficients 


     atomic species   valence    mass     pseudopotential
        Mn1           15.00    54.93804     Mn( 1.00)
        Mn2           15.00    54.93804     Mn( 1.00)

     Starting magnetic structure 
     atomic species   magnetization
        Mn1          0.100
        Mn2         -0.100

     48 Sym. Ops., with inversion, found



   Cartesian axes

     site n.     atom                  positions (alat units)
         1           Mn1 tau(   1) = (   0.0000000   0.0000000   0.0000000  )
         2           Mn2 tau(   2) = (   0.5000000   0.5000000   0.5000000  )

     number of k points=    20  Methfessel-Paxton smearing, width (Ry)=  0.0300
                       cart. coord. in units 2pi/alat
        k(    1) = (   0.0625000   0.0625000   0.0625000), wk =   0.0156250
        k(    2) = (   0.0625000   0.0625000   0.1875000), wk =   0.0468750
        k(    3) = (   0.0625000   0.0625000   0.3125000), wk =   0.0468750
        k(    4) = (   0.0625000   0.0625000   0.4375000), wk =   0.0468750
        k(    5) = (   0.0625000   0.1875000   0.1875000), wk =   0.0468750
        k(    6) = (   0.0625000   0.1875000   0.3125000), wk =   0.0937500
        k(    7) = (   0.0625000   0.1875000   0.4375000), wk =   0.0937500
        k(    8) = (   0.0625000   0.3125000   0.3125000), wk =   0.0468750
        k(    9) = (   0.0625000   0.3125000   0.4375000), wk =   0.0937500
        k(   10) = (   0.0625000   0.4375000   0.4375000), wk =   0.0468750
        k(   11) = (   0.1875000   0.1875000   0.1875000), wk =   0.0156250
        k(   12) = (   0.1875000   0.1875000   0.3125000), wk =   0.0468750
        k(   13) = (   0.1875000   0.1875000   0.4375000), wk =   0.0468750
        k(   14) = (   0.1875000   0.3125000   0.3125000), wk =   0.0468750
        k(   15) = (   0.1875000   0.3125000   0.4375000), wk =   0.0937500
        k(   16) = (   0.1875000   0.4375000   0.4375000), wk =   0.0468750
        k(   17) = (   0.3125000   0.3125000   0.3125000), wk =   0.0156250
        k(   18) = (   0.3125000   0.3125000   0.4375000), wk =   0.0468750
        k(   19) = (   0.3125000   0.4375000   0.4375000), wk =   0.0468750
        k(   20) = (   0.4375000   0.4375000   0.4375000), wk =   0.0156250

     Dense  grid:   859233 G-vectors     FFT dimensions: ( 120, 120, 120)

     Smooth grid:   303379 G-vectors     FFT dimensions: (  90,  90,  90)

     Estimated max dynamical RAM per process >     636.63 MB

     Estimated total dynamical RAM >       3.73 GB
     Generating pointlists ...
     new r_m :   0.3572 (alat units)  6.0419 (a.u.) for type    1
     new r_m :   0.3572 (alat units)  6.0419 (a.u.) for type    2

     Check: negative core charge=   -0.000001

     Initial potential from superposition of free atoms

     starting charge   29.99900, renormalised to   30.00000

     negative rho (up, down):  0.000E+00 5.278E-04
     Starting wfcs are   20 randomized atomic wfcs

     total cpu time spent up to now is       12.5 secs

     Self-consistent Calculation

     iteration #  1     ecut=    60.00 Ry     beta= 0.70
     Davidson diagonalization with overlap
     ethr =  1.00E-02,  avg # of iterations =  1.0

     negative rho (up, down):  2.834E-06 7.528E-03

     total cpu time spent up to now is       34.9 secs

     total energy              =    -424.94281329 Ry
     Harris-Foulkes estimate   =    -427.04345013 Ry
     estimated scf accuracy    <       2.74288448 Ry

     total magnetization       =     0.00 Bohr mag/cell
     absolute magnetization    =     5.98 Bohr mag/cell

     iteration #  2     ecut=    60.00 Ry     beta= 0.70
     Davidson diagonalization with overlap
     ethr =  9.14E-03,  avg # of iterations = 10.9

     total cpu time spent up to now is      100.1 secs

     total energy              =    -423.44001493 Ry
     Harris-Foulkes estimate   =    -433.87663918 Ry
     estimated scf accuracy    <      47.07395656 Ry

     total magnetization       =    -0.02 Bohr mag/cell
     absolute magnetization    =     0.46 Bohr mag/cell

     iteration #  3     ecut=    60.00 Ry     beta= 0.70
     Davidson diagonalization with overlap
     c_bands:  2 eigenvalues not converged
     ethr =  9.14E-03,  avg # of iterations =  8.1

     total cpu time spent up to now is      137.9 secs

     total energy              =    -424.53798778 Ry
     Harris-Foulkes estimate   =    -425.54396317 Ry
     estimated scf accuracy    <       8.00777064 Ry

     total magnetization       =    -0.36 Bohr mag/cell
     absolute magnetization    =     4.58 Bohr mag/cell

     iteration #  4     ecut=    60.00 Ry     beta= 0.70
     Davidson diagonalization with overlap
     ethr =  9.14E-03,  avg # of iterations =  7.5

     total cpu time spent up to now is      169.6 secs

     total energy              =    -426.67185960 Ry
     Harris-Foulkes estimate   =    -426.71195039 Ry
     estimated scf accuracy    <       0.53489834 Ry

     total magnetization       =     0.88 Bohr mag/cell
     absolute magnetization    =     6.37 Bohr mag/cell

     iteration #  5     ecut=    60.00 Ry     beta= 0.70
     Davidson diagonalization with overlap
     ethr =  1.78E-03,  avg # of iterations =  5.8

     total cpu time spent up to now is      201.4 secs

     total energy              =    -426.94716192 Ry
     Harris-Foulkes estimate   =    -426.94351436 Ry
     estimated scf accuracy    <       0.55408853 Ry

     total magnetization       =    -0.18 Bohr mag/cell
     absolute magnetization    =     9.66 Bohr mag/cell

     iteration #  6     ecut=    60.00 Ry     beta= 0.70
     Davidson diagonalization with overlap
     ethr =  1.78E-03,  avg # of iterations =  1.4

     total cpu time spent up to now is      224.3 secs

     total energy              =    -426.98928970 Ry
     Harris-Foulkes estimate   =    -427.00994733 Ry
     estimated scf accuracy    <       4.48328872 Ry

     total magnetization       =    -2.52 Bohr mag/cell
     absolute magnetization    =     6.48 Bohr mag/cell

     iteration #  7     ecut=    60.00 Ry     beta= 0.70
     Davidson diagonalization with overlap
     ethr =  1.78E-03,  avg # of iterations =  1.0

     total cpu time spent up to now is      246.7 secs

     total energy              =    -426.95598822 Ry
     Harris-Foulkes estimate   =    -427.02360673 Ry
     estimated scf accuracy    <       2.51134912 Ry

     total magnetization       =     0.26 Bohr mag/cell
     absolute magnetization    =     5.62 Bohr mag/cell

     iteration #  8     ecut=    60.00 Ry     beta= 0.70
     Davidson diagonalization with overlap
     ethr =  1.78E-03,  avg # of iterations =  1.0

     total cpu time spent up to now is      269.2 secs

     total energy              =    -426.96015368 Ry
     Harris-Foulkes estimate   =    -426.96107908 Ry
     estimated scf accuracy    <       1.99166501 Ry

     total magnetization       =    -0.52 Bohr mag/cell
     absolute magnetization    =     6.29 Bohr mag/cell

     iteration #  9     ecut=    60.00 Ry     beta= 0.70
     Davidson diagonalization with overlap
     ethr =  1.78E-03,  avg # of iterations =  1.0

     total cpu time spent up to now is      291.8 secs

     total energy              =    -426.91386307 Ry
     Harris-Foulkes estimate   =    -426.96085541 Ry
     estimated scf accuracy    <       1.99001024 Ry

     total magnetization       =    -0.51 Bohr mag/cell
     absolute magnetization    =     6.29 Bohr mag/cell

     iteration # 10     ecut=    60.00 Ry     beta= 0.70
     Davidson diagonalization with overlap
     ethr =  1.78E-03,  avg # of iterations =  1.1

     total cpu time spent up to now is      314.3 secs

     total energy              =    -426.98861875 Ry
     Harris-Foulkes estimate   =    -426.91677929 Ry
     estimated scf accuracy    <       1.61927219 Ry

     total magnetization       =    -0.64 Bohr mag/cell
     absolute magnetization    =     6.92 Bohr mag/cell

     iteration # 11     ecut=    60.00 Ry     beta= 0.70
     Davidson diagonalization with overlap
     ethr =  1.78E-03,  avg # of iterations =  1.1

     total cpu time spent up to now is      336.9 secs

     total energy              =    -426.97167959 Ry
     Harris-Foulkes estimate   =    -427.02288140 Ry
     estimated scf accuracy    <       0.96124697 Ry

     total magnetization       =    -0.80 Bohr mag/cell
     absolute magnetization    =     9.52 Bohr mag/cell

     iteration # 12     ecut=    60.00 Ry     beta= 0.70
     Davidson diagonalization with overlap
     ethr =  1.78E-03,  avg # of iterations =  1.2

     negative rho (up, down):  3.288E-08 1.103E-01

     total cpu time spent up to now is      359.6 secs

     total energy              =    -427.21628060 Ry
     Harris-Foulkes estimate   =    -426.98175696 Ry
     estimated scf accuracy    <       0.67681943 Ry

     total magnetization       =    -0.46 Bohr mag/cell
     absolute magnetization    =    10.00 Bohr mag/cell

     iteration # 13     ecut=    60.00 Ry     beta= 0.70
     Davidson diagonalization with overlap
     ethr =  1.78E-03,  avg # of iterations =  2.7

     negative rho (up, down):  0.000E+00 2.094E-01

     total cpu time spent up to now is      384.4 secs

     total energy              =    -427.29021682 Ry
     Harris-Foulkes estimate   =    -427.25412482 Ry
     estimated scf accuracy    <       2.22196386 Ry

     total magnetization       =    -1.58 Bohr mag/cell
     absolute magnetization    =     9.86 Bohr mag/cell

     iteration # 14     ecut=    60.00 Ry     beta= 0.70
     Davidson diagonalization with overlap
     ethr =  1.78E-03,  avg # of iterations =  1.3

     negative rho (up, down):  0.000E+00 3.434E-01

     total cpu time spent up to now is      406.8 secs

     total energy              =    -427.19214094 Ry
     Harris-Foulkes estimate   =    -427.31925955 Ry
     estimated scf accuracy    <       2.80152284 Ry

     total magnetization       =    -2.07 Bohr mag/cell
     absolute magnetization    =     9.97 Bohr mag/cell

     iteration # 15     ecut=    60.00 Ry     beta= 0.70
     Davidson diagonalization with overlap
     ethr =  1.78E-03,  avg # of iterations =  2.0

     negative rho (up, down):  0.000E+00 4.562E-02

     total cpu time spent up to now is      430.2 secs

     total energy              =    -427.30525019 Ry
     Harris-Foulkes estimate   =    -427.26198859 Ry
     estimated scf accuracy    <       0.69783684 Ry

     total magnetization       =    -0.36 Bohr mag/cell
     absolute magnetization    =    10.28 Bohr mag/cell

     iteration # 16     ecut=    60.00 Ry     beta= 0.70
     Davidson diagonalization with overlap
     ethr =  1.78E-03,  avg # of iterations =  1.5

     negative rho (up, down):  0.000E+00 1.436E-02

     total cpu time spent up to now is      452.8 secs

     total energy              =    -427.32672456 Ry
     Harris-Foulkes estimate   =    -427.32488453 Ry
     estimated scf accuracy    <       0.60289749 Ry

     total magnetization       =    -0.05 Bohr mag/cell
     absolute magnetization    =    10.44 Bohr mag/cell

     iteration # 17     ecut=    60.00 Ry     beta= 0.70
     Davidson diagonalization with overlap
     ethr =  1.78E-03,  avg # of iterations =  1.0

     negative rho (up, down):  0.000E+00 3.835E-01

     total cpu time spent up to now is      474.8 secs

     total energy              =    -426.47171590 Ry
     Harris-Foulkes estimate   =    -427.33548406 Ry
     estimated scf accuracy    <       0.54755413 Ry

     total magnetization       =    -0.08 Bohr mag/cell
     absolute magnetization    =    10.35 Bohr mag/cell

     iteration # 18     ecut=    60.00 Ry     beta= 0.70
     Davidson diagonalization with overlap
     ethr =  1.78E-03,  avg # of iterations =  4.0

     negative rho (up, down):  0.000E+00 3.329E-01

     total cpu time spent up to now is      510.0 secs

     total energy              =    -426.27033551 Ry
     Harris-Foulkes estimate   =    -426.70195888 Ry
     estimated scf accuracy    <       4.41057932 Ry

     total magnetization       =    -0.46 Bohr mag/cell
     absolute magnetization    =     6.82 Bohr mag/cell

     iteration # 19     ecut=    60.00 Ry     beta= 0.70
     Davidson diagonalization with overlap
     ethr =  1.78E-03,  avg # of iterations =  1.7

     negative rho (up, down):  7.371E-04 3.740E-01

     total cpu time spent up to now is      533.4 secs

     total energy              =    -426.14618776 Ry
     Harris-Foulkes estimate   =    -426.44157917 Ry
     estimated scf accuracy    <       5.40352670 Ry

     total magnetization       =     2.34 Bohr mag/cell
     absolute magnetization    =     2.68 Bohr mag/cell

     iteration # 20     ecut=    60.00 Ry     beta= 0.70
     Davidson diagonalization with overlap
     ethr =  1.78E-03,  avg # of iterations =  3.5

     negative rho (up, down):  1.029E-03 2.386E-01

     total cpu time spent up to now is      564.1 secs

     total energy              =    -426.75172510 Ry
     Harris-Foulkes estimate   =    -426.87075700 Ry
     estimated scf accuracy    <       2.94631501 Ry

     total magnetization       =     3.31 Bohr mag/cell
     absolute magnetization    =     8.83 Bohr mag/cell

     iteration # 21     ecut=    60.00 Ry     beta= 0.70
     Davidson diagonalization with overlap
     ethr =  1.78E-03,  avg # of iterations =  1.1

     negative rho (up, down):  1.793E-03 3.303E-01

     total cpu time spent up to now is      586.7 secs

     total energy              =    -426.78248403 Ry
     Harris-Foulkes estimate   =    -426.81716929 Ry
     estimated scf accuracy    <       0.57339705 Ry

     total magnetization       =     1.06 Bohr mag/cell
     absolute magnetization    =    10.00 Bohr mag/cell

     iteration # 22     ecut=    60.00 Ry     beta= 0.70
     Davidson diagonalization with overlap
     ethr =  1.78E-03,  avg # of iterations =  1.0

     negative rho (up, down):  3.862E-03 3.773E-01

     total cpu time spent up to now is      608.9 secs

     total energy              =    -426.76970393 Ry
     Harris-Foulkes estimate   =    -426.79758974 Ry
     estimated scf accuracy    <       1.44868581 Ry

     total magnetization       =     2.54 Bohr mag/cell
     absolute magnetization    =     9.35 Bohr mag/cell

     iteration # 23     ecut=    60.00 Ry     beta= 0.70
     Davidson diagonalization with overlap
     ethr =  1.78E-03,  avg # of iterations =  1.0

     negative rho (up, down):  2.116E-02 4.665E-01

     total cpu time spent up to now is      631.3 secs

     total energy              =    -426.75648050 Ry
     Harris-Foulkes estimate   =    -426.77237032 Ry
     estimated scf accuracy    <       0.99871436 Ry

     total magnetization       =     2.16 Bohr mag/cell
     absolute magnetization    =     9.54 Bohr mag/cell

     iteration # 24     ecut=    60.00 Ry     beta= 0.70
     Davidson diagonalization with overlap
     ethr =  1.78E-03,  avg # of iterations =  1.0

     negative rho (up, down):  0.000E+00 3.662E-01

     total cpu time spent up to now is      653.2 secs

     total energy              =    -426.62869878 Ry
     Harris-Foulkes estimate   =    -426.77346859 Ry
     estimated scf accuracy    <       2.45859524 Ry

     total magnetization       =     3.70 Bohr mag/cell
     absolute magnetization    =     8.63 Bohr mag/cell

     iteration # 25     ecut=    60.00 Ry     beta= 0.70
     Davidson diagonalization with overlap
     ethr =  1.78E-03,  avg # of iterations =  3.0

     negative rho (up, down):  1.275E-07 4.176E-01

     total cpu time spent up to now is      678.5 secs

     total energy              =    -427.11497066 Ry
     Harris-Foulkes estimate   =    -427.00899071 Ry
     estimated scf accuracy    <       0.60412409 Ry

     total magnetization       =    -0.17 Bohr mag/cell
     absolute magnetization    =    10.09 Bohr mag/cell

     iteration # 26     ecut=    60.00 Ry     beta= 0.70
     Davidson diagonalization with overlap
     ethr =  1.78E-03,  avg # of iterations =  2.0

     negative rho (up, down):  0.000E+00 8.681E-06

     total cpu time spent up to now is      702.0 secs

     total energy              =    -427.22852905 Ry
     Harris-Foulkes estimate   =    -427.12509925 Ry
     estimated scf accuracy    <       0.78317002 Ry

     total magnetization       =    -0.13 Bohr mag/cell
     absolute magnetization    =    10.16 Bohr mag/cell

     iteration # 27     ecut=    60.00 Ry     beta= 0.70
     Davidson diagonalization with overlap
     ethr =  1.78E-03,  avg # of iterations =  1.0

     negative rho (up, down):  2.809E-05 1.501E-01

     total cpu time spent up to now is      724.2 secs

     total energy              =    -427.28444589 Ry
     Harris-Foulkes estimate   =    -427.23152463 Ry
     estimated scf accuracy    <       0.73288870 Ry

     total magnetization       =    -0.07 Bohr mag/cell
     absolute magnetization    =    10.01 Bohr mag/cell

     iteration # 28     ecut=    60.00 Ry     beta= 0.70
     Davidson diagonalization with overlap
     ethr =  1.78E-03,  avg # of iterations =  1.0

     negative rho (up, down):  0.000E+00 6.545E-04

     total cpu time spent up to now is      746.6 secs

     total energy              =    -427.06749785 Ry
     Harris-Foulkes estimate   =    -427.28784274 Ry
     estimated scf accuracy    <       0.77536164 Ry

     total magnetization       =    -0.03 Bohr mag/cell
     absolute magnetization    =    10.05 Bohr mag/cell

     iteration # 29     ecut=    60.00 Ry     beta= 0.70
     Davidson diagonalization with overlap
     ethr =  1.78E-03,  avg # of iterations =  2.0

     negative rho (up, down):  0.000E+00 7.927E-02

     total cpu time spent up to now is      772.2 secs

     total energy              =    -427.12053117 Ry
     Harris-Foulkes estimate   =    -427.13565630 Ry
     estimated scf accuracy    <       0.64497339 Ry

     total magnetization       =    -1.69 Bohr mag/cell
     absolute magnetization    =    10.09 Bohr mag/cell

     iteration # 30     ecut=    60.00 Ry     beta= 0.70
     Davidson diagonalization with overlap
     ethr =  1.78E-03,  avg # of iterations =  1.4

     negative rho (up, down):  0.000E+00 7.737E-02

     total cpu time spent up to now is      795.0 secs

     total energy              =    -427.15532073 Ry
     Harris-Foulkes estimate   =    -427.17126099 Ry
     estimated scf accuracy    <       0.34463822 Ry

     total magnetization       =     0.03 Bohr mag/cell
     absolute magnetization    =    10.09 Bohr mag/cell

     iteration # 31     ecut=    60.00 Ry     beta= 0.70
     Davidson diagonalization with overlap
     ethr =  1.15E-03,  avg # of iterations =  1.0

     negative rho (up, down):  0.000E+00 3.675E-03

     total cpu time spent up to now is      817.6 secs

     total energy              =    -427.16986755 Ry
     Harris-Foulkes estimate   =    -427.15997907 Ry
     estimated scf accuracy    <       0.29746880 Ry

     total magnetization       =    -0.48 Bohr mag/cell
     absolute magnetization    =    10.06 Bohr mag/cell

     iteration # 32     ecut=    60.00 Ry     beta= 0.70
     Davidson diagonalization with overlap
     ethr =  9.92E-04,  avg # of iterations =  1.1

     negative rho (up, down):  5.238E-05 3.089E-01

     total cpu time spent up to now is      840.0 secs

     total energy              =    -427.13749685 Ry
     Harris-Foulkes estimate   =    -427.17201202 Ry
     estimated scf accuracy    <       0.31865735 Ry

     total magnetization       =    -0.64 Bohr mag/cell
     absolute magnetization    =    10.07 Bohr mag/cell

     iteration # 33     ecut=    60.00 Ry     beta= 0.70
     Davidson diagonalization with overlap
     ethr =  9.92E-04,  avg # of iterations =  1.0

     negative rho (up, down):  0.000E+00 1.588E-01

     total cpu time spent up to now is      862.3 secs

     total energy              =    -427.11335466 Ry
     Harris-Foulkes estimate   =    -427.13907114 Ry
     estimated scf accuracy    <       0.29695771 Ry

     total magnetization       =    -0.48 Bohr mag/cell
     absolute magnetization    =    10.07 Bohr mag/cell

     iteration # 34     ecut=    60.00 Ry     beta= 0.70
     Davidson diagonalization with overlap
     ethr =  9.90E-04,  avg # of iterations =  3.2

     negative rho (up, down):  0.000E+00 7.975E-03

     total cpu time spent up to now is      891.6 secs

     total energy              =    -427.05797317 Ry
     Harris-Foulkes estimate   =    -427.36206981 Ry
     estimated scf accuracy    <       5.98155335 Ry

     total magnetization       =    -2.03 Bohr mag/cell
     absolute magnetization    =     7.93 Bohr mag/cell

     iteration # 35     ecut=    60.00 Ry     beta= 0.70
     Davidson diagonalization with overlap
     ethr =  9.90E-04,  avg # of iterations =  3.1

     total cpu time spent up to now is      918.1 secs

     total energy              =    -427.24870329 Ry
     Harris-Foulkes estimate   =    -427.19882863 Ry
     estimated scf accuracy    <       2.05079459 Ry

     total magnetization       =    -1.25 Bohr mag/cell
     absolute magnetization    =     8.29 Bohr mag/cell

     iteration # 36     ecut=    60.00 Ry     beta= 0.70
     Davidson diagonalization with overlap
     ethr =  9.90E-04,  avg # of iterations =  1.0

     negative rho (up, down):  0.000E+00 3.511E-01

     total cpu time spent up to now is      940.5 secs

     total energy              =    -427.08735826 Ry
     Harris-Foulkes estimate   =    -427.28643094 Ry
     estimated scf accuracy    <       3.30408557 Ry

     total magnetization       =    -2.00 Bohr mag/cell
     absolute magnetization    =     8.14 Bohr mag/cell

     iteration # 37     ecut=    60.00 Ry     beta= 0.70
     Davidson diagonalization with overlap
     ethr =  9.90E-04,  avg # of iterations =  3.1

     negative rho (up, down):  3.393E-02 9.330E-01

     total cpu time spent up to now is      965.2 secs

     total energy              =    -426.94607601 Ry
     Harris-Foulkes estimate   =    -427.18184684 Ry
     estimated scf accuracy    <       0.70229716 Ry

     total magnetization       =     0.07 Bohr mag/cell
     absolute magnetization    =     9.08 Bohr mag/cell

     iteration # 38     ecut=    60.00 Ry     beta= 0.70
     Davidson diagonalization with overlap
     ethr =  9.90E-04,  avg # of iterations =  3.3

     negative rho (up, down):  5.879E-06 4.208E-01

     total cpu time spent up to now is      993.0 secs

     total energy              =    -427.12655279 Ry
     Harris-Foulkes estimate   =    -427.05720429 Ry
     estimated scf accuracy    <       0.97075181 Ry

     total magnetization       =     0.10 Bohr mag/cell
     absolute magnetization    =    10.14 Bohr mag/cell

     iteration # 39     ecut=    60.00 Ry     beta= 0.70
     Davidson diagonalization with overlap
     ethr =  9.90E-04,  avg # of iterations =  2.0

     negative rho (up, down):  0.000E+00 3.976E-01

     total cpu time spent up to now is     1016.5 secs

     total energy              =    -427.08360887 Ry
     Harris-Foulkes estimate   =    -427.13461191 Ry
     estimated scf accuracy    <       0.62849594 Ry

     total magnetization       =     0.01 Bohr mag/cell
     absolute magnetization    =    10.11 Bohr mag/cell

     iteration # 40     ecut=    60.00 Ry     beta= 0.70
     Davidson diagonalization with overlap
     ethr =  9.90E-04,  avg # of iterations =  2.0

     negative rho (up, down):  0.000E+00 1.406E-03

     total cpu time spent up to now is     1041.1 secs

     total energy              =    -427.06164948 Ry
     Harris-Foulkes estimate   =    -427.11687767 Ry
     estimated scf accuracy    <       0.58373208 Ry

     total magnetization       =     1.35 Bohr mag/cell
     absolute magnetization    =    10.17 Bohr mag/cell

     iteration # 41     ecut=    60.00 Ry     beta= 0.70
     Davidson diagonalization with overlap
     ethr =  9.90E-04,  avg # of iterations =  2.0

     negative rho (up, down):  0.000E+00 1.057E-02

     total cpu time spent up to now is     1065.7 secs

     total energy              =    -427.11874527 Ry
     Harris-Foulkes estimate   =    -427.13647312 Ry
     estimated scf accuracy    <       0.11373451 Ry

     total magnetization       =    -0.22 Bohr mag/cell
     absolute magnetization    =    10.19 Bohr mag/cell

     iteration # 42     ecut=    60.00 Ry     beta= 0.70
     Davidson diagonalization with overlap
     ethr =  3.79E-04,  avg # of iterations =  1.1

     negative rho (up, down):  0.000E+00 5.087E-04

     total cpu time spent up to now is     1088.1 secs

     total energy              =    -427.11838817 Ry
     Harris-Foulkes estimate   =    -427.12698098 Ry
     estimated scf accuracy    <       0.06936736 Ry

     total magnetization       =     0.10 Bohr mag/cell
     absolute magnetization    =    10.18 Bohr mag/cell

     iteration # 43     ecut=    60.00 Ry     beta= 0.70
     Davidson diagonalization with overlap
     ethr =  2.31E-04,  avg # of iterations =  2.6

     negative rho (up, down):  0.000E+00 7.986E-05

     total cpu time spent up to now is     1114.5 secs

     total energy              =    -427.06093498 Ry
     Harris-Foulkes estimate   =    -427.15811809 Ry
     estimated scf accuracy    <       0.93493174 Ry

     total magnetization       =     2.00 Bohr mag/cell
     absolute magnetization    =    10.11 Bohr mag/cell

     iteration # 44     ecut=    60.00 Ry     beta= 0.70
     Davidson diagonalization with overlap
     ethr =  2.31E-04,  avg # of iterations =  2.5

     negative rho (up, down):  0.000E+00 8.681E-05

     total cpu time spent up to now is     1140.2 secs

     total energy              =    -427.12504270 Ry
     Harris-Foulkes estimate   =    -427.12721709 Ry
     estimated scf accuracy    <       0.04269806 Ry

     total magnetization       =     0.10 Bohr mag/cell
     absolute magnetization    =    10.19 Bohr mag/cell

     iteration # 45     ecut=    60.00 Ry     beta= 0.70
     Davidson diagonalization with overlap
     ethr =  1.42E-04,  avg # of iterations =  1.0

     negative rho (up, down):  0.000E+00 6.597E-05

     total cpu time spent up to now is     1162.7 secs

     total energy              =    -427.12483610 Ry
     Harris-Foulkes estimate   =    -427.12586450 Ry
     estimated scf accuracy    <       0.03280114 Ry

     total magnetization       =    -0.09 Bohr mag/cell
     absolute magnetization    =    10.19 Bohr mag/cell

     iteration # 46     ecut=    60.00 Ry     beta= 0.70
     Davidson diagonalization with overlap
     ethr =  1.09E-04,  avg # of iterations =  1.1

     negative rho (up, down):  0.000E+00 4.514E-05

     total cpu time spent up to now is     1185.4 secs

     total energy              =    -427.11721329 Ry
     Harris-Foulkes estimate   =    -427.12617783 Ry
     estimated scf accuracy    <       0.04355620 Ry

     total magnetization       =    -0.18 Bohr mag/cell
     absolute magnetization    =    10.20 Bohr mag/cell

     iteration # 47     ecut=    60.00 Ry     beta= 0.70
     Davidson diagonalization with overlap
     ethr =  1.09E-04,  avg # of iterations =  1.8

     negative rho (up, down):  0.000E+00 4.514E-05

     total cpu time spent up to now is     1210.1 secs

     total energy              =    -427.11902518 Ry
     Harris-Foulkes estimate   =    -427.11976951 Ry
     estimated scf accuracy    <       0.00939782 Ry

     total magnetization       =     0.02 Bohr mag/cell
     absolute magnetization    =    10.19 Bohr mag/cell

     iteration # 48     ecut=    60.00 Ry     beta= 0.70
     Davidson diagonalization with overlap
     ethr =  3.13E-05,  avg # of iterations =  2.5

     negative rho (up, down):  0.000E+00 7.292E-05

     total cpu time spent up to now is     1234.6 secs

     total energy              =    -427.11942236 Ry
     Harris-Foulkes estimate   =    -427.11968863 Ry
     estimated scf accuracy    <       0.00363738 Ry

     total magnetization       =    -0.04 Bohr mag/cell
     absolute magnetization    =    10.20 Bohr mag/cell

     iteration # 49     ecut=    60.00 Ry     beta= 0.70
     Davidson diagonalization with overlap
     ethr =  1.21E-05,  avg # of iterations =  2.3

     negative rho (up, down):  0.000E+00 1.076E-04

     total cpu time spent up to now is     1257.8 secs

     total energy              =    -427.12087037 Ry
     Harris-Foulkes estimate   =    -427.12079107 Ry
     estimated scf accuracy    <       0.02993917 Ry

     total magnetization       =     0.31 Bohr mag/cell
     absolute magnetization    =    10.17 Bohr mag/cell

     iteration # 50     ecut=    60.00 Ry     beta= 0.70
     Davidson diagonalization with overlap
     ethr =  1.21E-05,  avg # of iterations =  2.0

     negative rho (up, down):  0.000E+00 7.292E-05

     total cpu time spent up to now is     1281.0 secs

     total energy              =    -427.12078674 Ry
     Harris-Foulkes estimate   =    -427.12093562 Ry
     estimated scf accuracy    <       0.03363912 Ry

     total magnetization       =     0.33 Bohr mag/cell
     absolute magnetization    =    10.17 Bohr mag/cell

     iteration # 51     ecut=    60.00 Ry     beta= 0.70
     Davidson diagonalization with overlap
     ethr =  1.21E-05,  avg # of iterations =  1.0

     negative rho (up, down):  0.000E+00 3.125E-05

     total cpu time spent up to now is     1303.6 secs

     total energy              =    -427.11963985 Ry
     Harris-Foulkes estimate   =    -427.12080583 Ry
     estimated scf accuracy    <       0.02991095 Ry

     total magnetization       =     0.31 Bohr mag/cell
     absolute magnetization    =    10.17 Bohr mag/cell

     iteration # 52     ecut=    60.00 Ry     beta= 0.70
     Davidson diagonalization with overlap
     ethr =  1.21E-05,  avg # of iterations =  2.5

     negative rho (up, down):  0.000E+00 7.986E-05

     total cpu time spent up to now is     1332.0 secs

     total energy              =    -427.11770155 Ry
     Harris-Foulkes estimate   =    -427.12102965 Ry
     estimated scf accuracy    <       0.03330198 Ry

     total magnetization       =     0.24 Bohr mag/cell
     absolute magnetization    =    10.19 Bohr mag/cell

     iteration # 53     ecut=    60.00 Ry     beta= 0.70
     Davidson diagonalization with overlap
     ethr =  1.21E-05,  avg # of iterations =  2.5

     negative rho (up, down):  0.000E+00 1.285E-04

     total cpu time spent up to now is     1360.4 secs

     total energy              =    -427.11967660 Ry
     Harris-Foulkes estimate   =    -427.12001866 Ry
     estimated scf accuracy    <       0.00250722 Ry

     total magnetization       =     0.09 Bohr mag/cell
     absolute magnetization    =    10.17 Bohr mag/cell

     iteration # 54     ecut=    60.00 Ry     beta= 0.70
     Davidson diagonalization with overlap
     ethr =  8.36E-06,  avg # of iterations =  1.0

     negative rho (up, down):  0.000E+00 1.007E-04

     total cpu time spent up to now is     1383.0 secs

     total energy              =    -427.12002360 Ry
     Harris-Foulkes estimate   =    -427.12009982 Ry
     estimated scf accuracy    <       0.00499373 Ry

     total magnetization       =    -0.13 Bohr mag/cell
     absolute magnetization    =    10.18 Bohr mag/cell

     iteration # 55     ecut=    60.00 Ry     beta= 0.70
     Davidson diagonalization with overlap
     ethr =  8.36E-06,  avg # of iterations =  1.1

     negative rho (up, down):  0.000E+00 1.562E-04

     total cpu time spent up to now is     1405.8 secs

     total energy              =    -427.11988926 Ry
     Harris-Foulkes estimate   =    -427.12004103 Ry
     estimated scf accuracy    <       0.00290474 Ry

     total magnetization       =    -0.10 Bohr mag/cell
     absolute magnetization    =    10.18 Bohr mag/cell

     iteration # 56     ecut=    60.00 Ry     beta= 0.70
     Davidson diagonalization with overlap
     ethr =  8.36E-06,  avg # of iterations =  1.0

     negative rho (up, down):  0.000E+00 1.910E-04

     total cpu time spent up to now is     1428.1 secs

     total energy              =    -427.11992584 Ry
     Harris-Foulkes estimate   =    -427.11996199 Ry
     estimated scf accuracy    <       0.00003075 Ry

     total magnetization       =    -0.00 Bohr mag/cell
     absolute magnetization    =    10.18 Bohr mag/cell

     iteration # 57     ecut=    60.00 Ry     beta= 0.70
     Davidson diagonalization with overlap
     ethr =  1.03E-07,  avg # of iterations =  4.2

     negative rho (up, down):  0.000E+00 2.326E-04

     total cpu time spent up to now is     1457.8 secs

     total energy              =    -427.11986141 Ry
     Harris-Foulkes estimate   =    -427.11994930 Ry
     estimated scf accuracy    <       0.00006639 Ry

     total magnetization       =    -0.00 Bohr mag/cell
     absolute magnetization    =    10.17 Bohr mag/cell

     iteration # 58     ecut=    60.00 Ry     beta= 0.70
     Davidson diagonalization with overlap
     ethr =  1.03E-07,  avg # of iterations =  3.0

     negative rho (up, down):  0.000E+00 2.396E-04

     total cpu time spent up to now is     1485.2 secs

     total energy              =    -427.11987889 Ry
     Harris-Foulkes estimate   =    -427.11990537 Ry
     estimated scf accuracy    <       0.00046761 Ry

     total magnetization       =    -0.03 Bohr mag/cell
     absolute magnetization    =    10.17 Bohr mag/cell

     iteration # 59     ecut=    60.00 Ry     beta= 0.70
     Davidson diagonalization with overlap
     ethr =  1.03E-07,  avg # of iterations =  3.2

     negative rho (up, down):  0.000E+00 2.535E-04

     total cpu time spent up to now is     1512.8 secs

     total energy              =    -427.11996559 Ry
     Harris-Foulkes estimate   =    -427.11997358 Ry
     estimated scf accuracy    <       0.00024346 Ry

     total magnetization       =    -0.02 Bohr mag/cell
     absolute magnetization    =    10.18 Bohr mag/cell

     iteration # 60     ecut=    60.00 Ry     beta= 0.70
     Davidson diagonalization with overlap
     ethr =  1.03E-07,  avg # of iterations =  2.0

     negative rho (up, down):  0.000E+00 2.535E-04

     total cpu time spent up to now is     1536.9 secs

     total energy              =    -427.11996602 Ry
     Harris-Foulkes estimate   =    -427.11997425 Ry
     estimated scf accuracy    <       0.00003797 Ry

     total magnetization       =    -0.01 Bohr mag/cell
     absolute magnetization    =    10.18 Bohr mag/cell

     iteration # 61     ecut=    60.00 Ry     beta= 0.70
     Davidson diagonalization with overlap
     ethr =  1.03E-07,  avg # of iterations =  2.0

     negative rho (up, down):  0.000E+00 2.396E-04

     total cpu time spent up to now is     1560.9 secs

     total energy              =    -427.11997739 Ry
     Harris-Foulkes estimate   =    -427.11997746 Ry
     estimated scf accuracy    <       0.00000155 Ry

     total magnetization       =    -0.00 Bohr mag/cell
     absolute magnetization    =    10.18 Bohr mag/cell

     iteration # 62     ecut=    60.00 Ry     beta= 0.70
     Davidson diagonalization with overlap
     ethr =  5.16E-09,  avg # of iterations =  4.7

     negative rho (up, down):  0.000E+00 2.396E-04

     Magnetic moment per site:
     atom:    1    charge:   14.9662    magn:    5.0125    constr:    0.0000
     atom:    2    charge:   14.9656    magn:   -5.0131    constr:    0.0000

     total cpu time spent up to now is     1587.2 secs

     End of self-consistent calculation

 ------ SPIN UP ------------


          k = 0.0625 0.0625 0.0625 ( 37956 PWs)   bands (ev):

   -86.5748 -81.1860 -55.2768 -55.2768 -55.2768 -50.0061 -50.0061 -50.0061
    -7.2703  -7.2703  -7.2703  -7.2692  -7.2692  -4.5886  -3.5552  -2.8358
    -2.8342  -2.8341  -2.8341

          k = 0.0625 0.0625 0.1875 ( 37997 PWs)   bands (ev):

   -86.5748 -81.1860 -55.2768 -55.2768 -55.2768 -50.0061 -50.0061 -50.0061
    -7.2704  -7.2704  -7.2703  -7.2692  -7.2692  -4.5868  -3.5535  -2.8358
    -2.8353  -2.8343  -2.8342

          k = 0.0625 0.0625 0.3125 ( 37969 PWs)   bands (ev):

   -86.5748 -81.1860 -55.2768 -55.2768 -55.2768 -50.0061 -50.0061 -50.0061
    -7.2704  -7.2703  -7.2703  -7.2692  -7.2691  -4.5842  -3.5511  -2.8355
    -2.8347  -2.8345  -2.8344

          k = 0.0625 0.0625 0.4375 ( 37988 PWs)   bands (ev):

   -86.5748 -81.1860 -55.2768 -55.2768 -55.2768 -50.0061 -50.0061 -50.0061
    -7.2704  -7.2703  -7.2703  -7.2692  -7.2692  -4.5823  -3.5495  -2.8357
    -2.8347  -2.8345  -2.8342

          k = 0.0625 0.1875 0.1875 ( 37948 PWs)   bands (ev):

   -86.5748 -81.1860 -55.2768 -55.2768 -55.2768 -50.0061 -50.0061 -50.0061
    -7.2703  -7.2703  -7.2703  -7.2692  -7.2692  -4.5850  -3.5513  -2.8352
    -2.8349  -2.8343  -2.8343

          k = 0.0625 0.1875 0.3125 ( 37943 PWs)   bands (ev):

   -86.5748 -81.1860 -55.2768 -55.2768 -55.2768 -50.0061 -50.0061 -50.0061
    -7.2703  -7.2703  -7.2703  -7.2692  -7.2691  -4.5826  -3.5483  -2.8355
    -2.8346  -2.8345  -2.8344

          k = 0.0625 0.1875 0.4375 ( 37965 PWs)   bands (ev):

   -86.5748 -81.1860 -55.2768 -55.2768 -55.2768 -50.0061 -50.0061 -50.0061
    -7.2704  -7.2703  -7.2703  -7.2692  -7.2691  -4.5809  -3.5461  -2.8354
    -2.8348  -2.8346  -2.8342

          k = 0.0625 0.3125 0.3125 ( 37965 PWs)   bands (ev):

   -86.5748 -81.1860 -55.2768 -55.2768 -55.2768 -50.0061 -50.0061 -50.0061
    -7.2704  -7.2703  -7.2703  -7.2692  -7.2691  -4.5805  -3.5442  -2.8352
    -2.8348  -2.8344  -2.8342

          k = 0.0625 0.3125 0.4375 ( 37964 PWs)   bands (ev):

   -86.5748 -81.1860 -55.2768 -55.2768 -55.2768 -50.0061 -50.0061 -50.0061
    -7.2704  -7.2703  -7.2703  -7.2692  -7.2691  -4.5789  -3.5413  -2.8351
    -2.8349  -2.8345  -2.8342

          k = 0.0625 0.4375 0.4375 ( 37955 PWs)   bands (ev):

   -86.5748 -81.1860 -55.2768 -55.2768 -55.2768 -50.0061 -50.0061 -50.0061
    -7.2704  -7.2703  -7.2703  -7.2692  -7.2691  -4.5775  -3.5379  -2.8350
    -2.8349  -2.8345  -2.8345

          k = 0.1875 0.1875 0.1875 ( 37947 PWs)   bands (ev):

   -86.5748 -81.1860 -55.2768 -55.2768 -55.2768 -50.0061 -50.0061 -50.0061
    -7.2703  -7.2703  -7.2703  -7.2692  -7.2692  -4.5834  -3.5489  -2.8351
    -2.8346  -2.8344  -2.8344

          k = 0.1875 0.1875 0.3125 ( 37967 PWs)   bands (ev):

   -86.5748 -81.1860 -55.2768 -55.2768 -55.2768 -50.0061 -50.0061 -50.0061
    -7.2703  -7.2703  -7.2703  -7.2691  -7.2691  -4.5812  -3.5453  -2.8351
    -2.8347  -2.8346  -2.8345

          k = 0.1875 0.1875 0.4375 ( 37959 PWs)   bands (ev):

   -86.5748 -81.1860 -55.2768 -55.2768 -55.2768 -50.0061 -50.0061 -50.0061
    -7.2704  -7.2703  -7.2703  -7.2691  -7.2691  -4.5795  -3.5428  -2.8351
    -2.8348  -2.8347  -2.8342

          k = 0.1875 0.3125 0.3125 ( 37963 PWs)   bands (ev):

   -86.5748 -81.1860 -55.2768 -55.2768 -55.2768 -50.0061 -50.0061 -50.0061
    -7.2704  -7.2703  -7.2703  -7.2691  -7.2691  -4.5791  -3.5412  -2.8348
    -2.8347  -2.8346  -2.8343

          k = 0.1875 0.3125 0.4375 ( 37982 PWs)   bands (ev):

   -86.5748 -81.1860 -55.2768 -55.2768 -55.2768 -50.0061 -50.0061 -50.0061
    -7.2704  -7.2703  -7.2703  -7.2692  -7.2691  -4.5776  -3.5382  -2.8350
    -2.8347  -2.8347  -2.8345

          k = 0.1875 0.4375 0.4375 ( 37994 PWs)   bands (ev):

   -86.5748 -81.1860 -55.2768 -55.2768 -55.2768 -50.0061 -50.0061 -50.0061
    -7.2704  -7.2704  -7.2704  -7.2691  -7.2691  -4.5762  -3.5349  -2.8351
    -2.8348  -2.8348  -2.8345

          k = 0.3125 0.3125 0.3125 ( 37995 PWs)   bands (ev):

   -86.5748 -81.1860 -55.2768 -55.2768 -55.2768 -50.0061 -50.0061 -50.0061
    -7.2704  -7.2704  -7.2703  -7.2692  -7.2692  -4.5771  -3.5368  -2.8349
    -2.8348  -2.8347  -2.8341

          k = 0.3125 0.3125 0.4375 ( 38001 PWs)   bands (ev):

   -86.5748 -81.1860 -55.2768 -55.2768 -55.2768 -50.0061 -50.0061 -50.0061
    -7.2704  -7.2704  -7.2703  -7.2692  -7.2691  -4.5757  -3.5338  -2.8351
    -2.8349  -2.8348  -2.8341

          k = 0.3125 0.4375 0.4375 ( 38016 PWs)   bands (ev):

   -86.5748 -81.1860 -55.2768 -55.2768 -55.2768 -50.0061 -50.0061 -50.0061
    -7.2704  -7.2704  -7.2704  -7.2691  -7.2691  -4.5743  -3.5306  -2.8352
    -2.8351  -2.8350  -2.8336

          k = 0.4375 0.4375 0.4375 ( 37980 PWs)   bands (ev):

   -86.5748 -81.1860 -55.2768 -55.2768 -55.2768 -50.0061 -50.0061 -50.0061
    -7.2704  -7.2704  -7.2704  -7.2691  -7.2691  -4.5730  -3.5275  -2.8353
    -2.8353  -2.8353  -2.8334

 ------ SPIN DOWN ----------


          k = 0.0625 0.0625 0.0625 ( 37956 PWs)   bands (ev):

   -86.5739 -81.1864 -55.2759 -55.2759 -55.2759 -50.0065 -50.0065 -50.0065
    -7.2691  -7.2691  -7.2691  -7.2691  -7.2691  -4.5885  -3.5556  -2.8377
    -2.8337  -2.8336  -2.8336

          k = 0.0625 0.0625 0.1875 ( 37997 PWs)   bands (ev):

   -86.5739 -81.1864 -55.2759 -55.2759 -55.2759 -50.0065 -50.0065 -50.0065
    -7.2692  -7.2692  -7.2691  -7.2691  -7.2691  -4.5867  -3.5539  -2.8377
    -2.8338  -2.8338  -2.8337

          k = 0.0625 0.0625 0.3125 ( 37969 PWs)   bands (ev):

   -86.5739 -81.1864 -55.2759 -55.2759 -55.2759 -50.0065 -50.0065 -50.0065
    -7.2692  -7.2691  -7.2691  -7.2691  -7.2691  -4.5841  -3.5516  -2.8376
    -2.8366  -2.8340  -2.8340

          k = 0.0625 0.0625 0.4375 ( 37988 PWs)   bands (ev):

   -86.5739 -81.1864 -55.2759 -55.2759 -55.2759 -50.0065 -50.0065 -50.0065
    -7.2692  -7.2691  -7.2691  -7.2691  -7.2691  -4.5823  -3.5499  -2.8362
    -2.8342  -2.8342  -2.8336

          k = 0.0625 0.1875 0.1875 ( 37948 PWs)   bands (ev):

   -86.5739 -81.1864 -55.2759 -55.2759 -55.2759 -50.0065 -50.0065 -50.0065
    -7.2691  -7.2691  -7.2691  -7.2691  -7.2691  -4.5850  -3.5518  -2.8374
    -2.8370  -2.8339  -2.8338

          k = 0.0625 0.1875 0.3125 ( 37943 PWs)   bands (ev):

   -86.5739 -81.1864 -55.2759 -55.2759 -55.2759 -50.0065 -50.0065 -50.0065
    -7.2691  -7.2691  -7.2691  -7.2691  -7.2690  -4.5826  -3.5487  -2.8369
    -2.8341  -2.8340  -2.8338

          k = 0.0625 0.1875 0.4375 ( 37965 PWs)   bands (ev):

   -86.5739 -81.1864 -55.2759 -55.2759 -55.2759 -50.0065 -50.0065 -50.0065
    -7.2691  -7.2691  -7.2691  -7.2691  -7.2691  -4.5809  -3.5465  -2.8363
    -2.8343  -2.8341  -2.8338

          k = 0.0625 0.3125 0.3125 ( 37965 PWs)   bands (ev):

   -86.5739 -81.1864 -55.2759 -55.2759 -55.2759 -50.0065 -50.0065 -50.0065
    -7.2692  -7.2691  -7.2691  -7.2691  -7.2690  -4.5804  -3.5446  -2.8371
    -2.8360  -2.8343  -2.8340

          k = 0.0625 0.3125 0.4375 ( 37964 PWs)   bands (ev):

   -86.5739 -81.1864 -55.2759 -55.2759 -55.2759 -50.0065 -50.0065 -50.0065
    -7.2691  -7.2691  -7.2691  -7.2691  -7.2691  -4.5789  -3.5417  -2.8369
    -2.8344  -2.8341  -2.8340

          k = 0.0625 0.4375 0.4375 ( 37955 PWs)   bands (ev):

   -86.5739 -81.1864 -55.2759 -55.2759 -55.2759 -50.0065 -50.0065 -50.0065
    -7.2692  -7.2691  -7.2691  -7.2691  -7.2690  -4.5775  -3.5383  -2.8368
    -2.8345  -2.8341  -2.8340

          k = 0.1875 0.1875 0.1875 ( 37947 PWs)   bands (ev):

   -86.5739 -81.1864 -55.2759 -55.2759 -55.2759 -50.0065 -50.0065 -50.0065
    -7.2691  -7.2691  -7.2691  -7.2691  -7.2691  -4.5834  -3.5493  -2.8370
    -2.8370  -2.8339  -2.8339

          k = 0.1875 0.1875 0.3125 ( 37967 PWs)   bands (ev):

   -86.5739 -81.1864 -55.2759 -55.2759 -55.2759 -50.0065 -50.0065 -50.0065
    -7.2691  -7.2691  -7.2691  -7.2691  -7.2691  -4.5811  -3.5458  -2.8369
    -2.8363  -2.8342  -2.8341

          k = 0.1875 0.1875 0.4375 ( 37959 PWs)   bands (ev):

   -86.5739 -81.1864 -55.2759 -55.2759 -55.2759 -50.0065 -50.0065 -50.0065
    -7.2691  -7.2691  -7.2691  -7.2691  -7.2690  -4.5795  -3.5433  -2.8369
    -2.8344  -2.8342  -2.8339

          k = 0.1875 0.3125 0.3125 ( 37963 PWs)   bands (ev):

   -86.5739 -81.1864 -55.2759 -55.2759 -55.2759 -50.0065 -50.0065 -50.0065
    -7.2691  -7.2691  -7.2691  -7.2691  -7.2691  -4.5790  -3.5416  -2.8362
    -2.8344  -2.8341  -2.8341

          k = 0.1875 0.3125 0.4375 ( 37982 PWs)   bands (ev):

   -86.5739 -81.1864 -55.2759 -55.2759 -55.2759 -50.0065 -50.0065 -50.0065
    -7.2692  -7.2691  -7.2691  -7.2691  -7.2690  -4.5775  -3.5386  -2.8365
    -2.8345  -2.8343  -2.8341

          k = 0.1875 0.4375 0.4375 ( 37994 PWs)   bands (ev):

   -86.5739 -81.1864 -55.2759 -55.2759 -55.2759 -50.0065 -50.0065 -50.0065
    -7.2692  -7.2691  -7.2691  -7.2691  -7.2690  -4.5762  -3.5353  -2.8358
    -2.8346  -2.8343  -2.8343

          k = 0.3125 0.3125 0.3125 ( 37995 PWs)   bands (ev):

   -86.5739 -81.1864 -55.2759 -55.2759 -55.2759 -50.0065 -50.0065 -50.0065
    -7.2691  -7.2691  -7.2691  -7.2691  -7.2691  -4.5771  -3.5373  -2.8360
    -2.8344  -2.8344  -2.8342

          k = 0.3125 0.3125 0.4375 ( 38001 PWs)   bands (ev):

   -86.5739 -81.1864 -55.2759 -55.2759 -55.2759 -50.0065 -50.0065 -50.0065
    -7.2692  -7.2692  -7.2691  -7.2691  -7.2691  -4.5756  -3.5342  -2.8360
    -2.8346  -2.8345  -2.8344

          k = 0.3125 0.4375 0.4375 ( 38016 PWs)   bands (ev):

   -86.5739 -81.1864 -55.2759 -55.2759 -55.2759 -50.0065 -50.0065 -50.0065
    -7.2692  -7.2692  -7.2692  -7.2691  -7.2690  -4.5743  -3.5310  -2.8357
    -2.8347  -2.8346  -2.8346

          k = 0.4375 0.4375 0.4375 ( 37980 PWs)   bands (ev):

   -86.5739 -81.1864 -55.2759 -55.2759 -55.2759 -50.0065 -50.0065 -50.0065
    -7.2692  -7.2691  -7.2691  -7.2690  -7.2690  -4.5730  -3.5280  -2.8352
    -2.8348  -2.8348  -2.8348

     the Fermi energy is    -3.1825 ev

!    total energy              =    -427.11997777 Ry
     Harris-Foulkes estimate   =    -427.11997789 Ry
     estimated scf accuracy    <       0.00000017 Ry

     The total energy is the sum of the following terms:

     one-electron contribution =    -534.01104023 Ry
     hartree contribution      =     259.13386288 Ry
     xc contribution           =     -55.42446508 Ry
     ewald contribution        =     -96.82790270 Ry
     smearing contrib. (-TS)   =       0.00956736 Ry

     total magnetization       =    -0.00 Bohr mag/cell
     absolute magnetization    =    10.18 Bohr mag/cell

     convergence has been achieved in  62 iterations

     Writing output data file mn-8.95.save/

     init_run     :     10.53s CPU     11.08s WALL (       1 calls)
     electrons    :   1514.88s CPU   1574.77s WALL (       1 calls)

     Called by init_run:
     wfcinit      :      7.01s CPU      7.14s WALL (       1 calls)
     potinit      :      1.10s CPU      1.17s WALL (       1 calls)
     hinit0       :      0.97s CPU      0.99s WALL (       1 calls)

     Called by electrons:
     c_bands      :   1034.87s CPU   1051.44s WALL (      62 calls)
     sum_band     :    357.46s CPU    380.28s WALL (      62 calls)
     v_of_rho     :     43.98s CPU     45.19s WALL (      63 calls)
     newd         :     65.24s CPU     84.44s WALL (      63 calls)
     mix_rho      :      9.90s CPU     10.15s WALL (      62 calls)

     Called by c_bands:
     init_us_2    :     12.17s CPU     12.25s WALL (    5000 calls)
     cegterg      :    986.26s CPU   1002.60s WALL (    2480 calls)

     Called by sum_band:
     sum_band:bec :      0.06s CPU      0.06s WALL (    2480 calls)
     addusdens    :    166.57s CPU    186.06s WALL (      62 calls)

     Called by *egterg:
     h_psi        :    730.88s CPU    746.53s WALL (    8178 calls)
     s_psi        :     44.25s CPU     44.41s WALL (    8178 calls)
     g_psi        :      3.71s CPU      3.73s WALL (    5658 calls)
     cdiaghg      :      5.01s CPU      5.04s WALL (    8138 calls)

     Called by h_psi:
     h_psi:pot    :    728.40s CPU    744.04s WALL (    8178 calls)
     h_psi:calbec :     67.34s CPU     67.92s WALL (    8178 calls)
     vloc_psi     :    614.08s CPU    629.00s WALL (    8178 calls)
     add_vuspsi   :     46.89s CPU     47.07s WALL (    8178 calls)

     General routines
     calbec       :     95.55s CPU     96.23s WALL (   10658 calls)
     fft          :     31.19s CPU     32.51s WALL (    1569 calls)
     ffts         :      1.38s CPU      1.44s WALL (     250 calls)
     fftw         :    665.10s CPU    680.99s WALL (  269608 calls)
     interpolate  :      3.64s CPU      3.75s WALL (     126 calls)

     Parallel routines
     fft_scatt_xy :     69.33s CPU     70.97s WALL (  271427 calls)
     fft_scatt_yz :    266.83s CPU    274.14s WALL (  271427 calls)

     PWSCF        :  25m27.13s CPU  26m27.97s WALL


   This run was terminated on:   2:31:58  29May2022            

=------------------------------------------------------------------------------=
   JOB DONE.
=------------------------------------------------------------------------------=
