
     Program PWSCF v.6.4.1 starts on 28May2022 at 23:50:24 

     This program is part of the open-source Quantum ESPRESSO suite
     for quantum simulation of materials; please cite
         "P. Giannozzi et al., J. Phys.:Condens. Matter 21 395502 (2009);
         "P. Giannozzi et al., J. Phys.:Condens. Matter 29 465901 (2017);
          URL http://www.quantum-espresso.org", 
     in publications or presentations arising from this work. More details at
     http://www.quantum-espresso.org/quote

     Parallel version (MPI), running on     6 processors

     MPI processes distributed on     1 nodes
     R & G space division:  proc/nbgrp/npool/nimage =       6
     Reading input from mn-8.81.in

     Current dimensions of program PWSCF are:
     Max number of different atomic species (ntypx) = 10
     Max number of k-points (npk) =  40000
     Max angular momentum in pseudopotentials (lmaxx) =  3
               file Mn.pbe-spn-rrkjus_psl.0.3.1.UPF: wavefunction(s)  3D renormalized
               file Mn.pbe-spn-rrkjus_psl.0.3.1.UPF: wavefunction(s)  3D renormalized

     Subspace diagonalization in iterative solution of the eigenvalue problem:
     a serial algorithm will be used

     Message from routine setup:
     DEPRECATED: symmetry with ibrav=0, use correct ibrav instead

     Parallelization info
     --------------------
     sticks:   dense  smooth     PW     G-vecs:    dense   smooth      PW
     Min        1766     882    238               136596    48285    6723
     Max        1767     884    239               136597    48286    6724
     Sum       10597    5297   1433               819577   289715   40339



     bravais-lattice index     =            0
     lattice parameter (alat)  =      16.6485  a.u.
     unit-cell volume          =    4614.4966 (a.u.)^3
     number of atoms/cell      =            2
     number of atomic types    =            2
     number of electrons       =        30.00
     number of Kohn-Sham states=           19
     kinetic-energy cutoff     =      60.0000  Ry
     charge density cutoff     =     480.0000  Ry
     convergence threshold     =      1.0E-06
     mixing beta               =       0.7000
     number of iterations used =            8  plain     mixing
     Exchange-correlation      = PBE ( 1  4  3  4 0 0)

     celldm(1)=  16.648487  celldm(2)=   0.000000  celldm(3)=   0.000000
     celldm(4)=   0.000000  celldm(5)=   0.000000  celldm(6)=   0.000000

     crystal axes: (cart. coord. in units of alat)
               a(1) = (   1.000000   0.000000   0.000000 )  
               a(2) = (   0.000000   1.000000   0.000000 )  
               a(3) = (   0.000000   0.000000   1.000000 )  

     reciprocal axes: (cart. coord. in units 2 pi/alat)
               b(1) = (  1.000000  0.000000  0.000000 )  
               b(2) = (  0.000000  1.000000  0.000000 )  
               b(3) = (  0.000000  0.000000  1.000000 )  


     PseudoPot. # 1 for Mn read from file:
     /home/cristian/Escritorio/Proyecto_Grafeno/pseudopotenciales/Mn.pbe-spn-rrkjus_psl.0.3.1.UPF
     MD5 check sum: e1cac159bdd2ba70c18e85765a5d4279
     Pseudo is Ultrasoft + core correction, Zval = 15.0
     Generated using "atomic" code by A. Dal Corso v.6.2.2
     Using radial grid of 1187 points,  6 beta functions with: 
                l(1) =   0
                l(2) =   0
                l(3) =   1
                l(4) =   1
                l(5) =   2
                l(6) =   2
     Q(r) pseudized with 0 coefficients 


     PseudoPot. # 2 for Mn read from file:
     /home/cristian/Escritorio/Proyecto_Grafeno/pseudopotenciales/Mn.pbe-spn-rrkjus_psl.0.3.1.UPF
     MD5 check sum: e1cac159bdd2ba70c18e85765a5d4279
     Pseudo is Ultrasoft + core correction, Zval = 15.0
     Generated using "atomic" code by A. Dal Corso v.6.2.2
     Using radial grid of 1187 points,  6 beta functions with: 
                l(1) =   0
                l(2) =   0
                l(3) =   1
                l(4) =   1
                l(5) =   2
                l(6) =   2
     Q(r) pseudized with 0 coefficients 


     atomic species   valence    mass     pseudopotential
        Mn1           15.00    54.93804     Mn( 1.00)
        Mn2           15.00    54.93804     Mn( 1.00)

     Starting magnetic structure 
     atomic species   magnetization
        Mn1          0.100
        Mn2         -0.100

     48 Sym. Ops., with inversion, found



   Cartesian axes

     site n.     atom                  positions (alat units)
         1           Mn1 tau(   1) = (   0.0000000   0.0000000   0.0000000  )
         2           Mn2 tau(   2) = (   0.5000000   0.5000000   0.5000000  )

     number of k points=    20  Methfessel-Paxton smearing, width (Ry)=  0.0300
                       cart. coord. in units 2pi/alat
        k(    1) = (   0.0625000   0.0625000   0.0625000), wk =   0.0156250
        k(    2) = (   0.0625000   0.0625000   0.1875000), wk =   0.0468750
        k(    3) = (   0.0625000   0.0625000   0.3125000), wk =   0.0468750
        k(    4) = (   0.0625000   0.0625000   0.4375000), wk =   0.0468750
        k(    5) = (   0.0625000   0.1875000   0.1875000), wk =   0.0468750
        k(    6) = (   0.0625000   0.1875000   0.3125000), wk =   0.0937500
        k(    7) = (   0.0625000   0.1875000   0.4375000), wk =   0.0937500
        k(    8) = (   0.0625000   0.3125000   0.3125000), wk =   0.0468750
        k(    9) = (   0.0625000   0.3125000   0.4375000), wk =   0.0937500
        k(   10) = (   0.0625000   0.4375000   0.4375000), wk =   0.0468750
        k(   11) = (   0.1875000   0.1875000   0.1875000), wk =   0.0156250
        k(   12) = (   0.1875000   0.1875000   0.3125000), wk =   0.0468750
        k(   13) = (   0.1875000   0.1875000   0.4375000), wk =   0.0468750
        k(   14) = (   0.1875000   0.3125000   0.3125000), wk =   0.0468750
        k(   15) = (   0.1875000   0.3125000   0.4375000), wk =   0.0937500
        k(   16) = (   0.1875000   0.4375000   0.4375000), wk =   0.0468750
        k(   17) = (   0.3125000   0.3125000   0.3125000), wk =   0.0156250
        k(   18) = (   0.3125000   0.3125000   0.4375000), wk =   0.0468750
        k(   19) = (   0.3125000   0.4375000   0.4375000), wk =   0.0468750
        k(   20) = (   0.4375000   0.4375000   0.4375000), wk =   0.0156250

     Dense  grid:   819577 G-vectors     FFT dimensions: ( 120, 120, 120)

     Smooth grid:   289715 G-vectors     FFT dimensions: (  90,  90,  90)

     Estimated max dynamical RAM per process >     608.96 MB

     Estimated total dynamical RAM >       3.57 GB
     Generating pointlists ...
     new r_m :   0.3572 (alat units)  5.9474 (a.u.) for type    1
     new r_m :   0.3572 (alat units)  5.9474 (a.u.) for type    2

     Check: negative core charge=   -0.000001

     Initial potential from superposition of free atoms

     starting charge   29.99900, renormalised to   30.00000

     negative rho (up, down):  0.000E+00 2.361E-04
     Starting wfcs are   20 randomized atomic wfcs

     total cpu time spent up to now is       12.2 secs

     Self-consistent Calculation

     iteration #  1     ecut=    60.00 Ry     beta= 0.70
     Davidson diagonalization with overlap
     ethr =  1.00E-02,  avg # of iterations =  1.0

     negative rho (up, down):  9.700E-07 5.208E-03

     total cpu time spent up to now is       34.5 secs

     total energy              =    -424.94274262 Ry
     Harris-Foulkes estimate   =    -427.04345328 Ry
     estimated scf accuracy    <       2.74298620 Ry

     total magnetization       =    -0.00 Bohr mag/cell
     absolute magnetization    =     5.98 Bohr mag/cell

     iteration #  2     ecut=    60.00 Ry     beta= 0.70
     Davidson diagonalization with overlap
     ethr =  9.14E-03,  avg # of iterations = 10.7

     total cpu time spent up to now is       99.0 secs

     total energy              =    -423.45630465 Ry
     Harris-Foulkes estimate   =    -433.87171070 Ry
     estimated scf accuracy    <      46.89466331 Ry

     total magnetization       =    -0.06 Bohr mag/cell
     absolute magnetization    =     0.51 Bohr mag/cell

     iteration #  3     ecut=    60.00 Ry     beta= 0.70
     Davidson diagonalization with overlap
     ethr =  9.14E-03,  avg # of iterations =  7.6

     total cpu time spent up to now is      136.5 secs

     total energy              =    -424.69952886 Ry
     Harris-Foulkes estimate   =    -425.62521666 Ry
     estimated scf accuracy    <       7.25450767 Ry

     total magnetization       =     0.01 Bohr mag/cell
     absolute magnetization    =     4.84 Bohr mag/cell

     iteration #  4     ecut=    60.00 Ry     beta= 0.70
     Davidson diagonalization with overlap
     ethr =  9.14E-03,  avg # of iterations =  8.0

     total cpu time spent up to now is      168.1 secs

     total energy              =    -426.64597967 Ry
     Harris-Foulkes estimate   =    -426.65752470 Ry
     estimated scf accuracy    <       0.30170513 Ry

     total magnetization       =    -1.64 Bohr mag/cell
     absolute magnetization    =     6.21 Bohr mag/cell

     iteration #  5     ecut=    60.00 Ry     beta= 0.70
     Davidson diagonalization with overlap
     ethr =  1.01E-03,  avg # of iterations =  6.4

     total cpu time spent up to now is      202.4 secs

     total energy              =    -426.96797770 Ry
     Harris-Foulkes estimate   =    -426.97163702 Ry
     estimated scf accuracy    <       0.89458068 Ry

     total magnetization       =     0.65 Bohr mag/cell
     absolute magnetization    =     9.65 Bohr mag/cell

     iteration #  6     ecut=    60.00 Ry     beta= 0.70
     Davidson diagonalization with overlap
     ethr =  1.01E-03,  avg # of iterations =  1.2

     total cpu time spent up to now is      224.8 secs

     total energy              =    -426.96021250 Ry
     Harris-Foulkes estimate   =    -426.97187449 Ry
     estimated scf accuracy    <       0.62635622 Ry

     total magnetization       =    -0.03 Bohr mag/cell
     absolute magnetization    =     9.77 Bohr mag/cell

     iteration #  7     ecut=    60.00 Ry     beta= 0.70
     Davidson diagonalization with overlap
     ethr =  1.01E-03,  avg # of iterations =  2.3

     total cpu time spent up to now is      248.8 secs

     total energy              =    -427.16869221 Ry
     Harris-Foulkes estimate   =    -427.15760359 Ry
     estimated scf accuracy    <       3.58987907 Ry

     total magnetization       =    -1.39 Bohr mag/cell
     absolute magnetization    =     5.97 Bohr mag/cell

     iteration #  8     ecut=    60.00 Ry     beta= 0.70
     Davidson diagonalization with overlap
     ethr =  1.01E-03,  avg # of iterations =  1.3

     total cpu time spent up to now is      271.3 secs

     total energy              =    -427.09708351 Ry
     Harris-Foulkes estimate   =    -427.17311150 Ry
     estimated scf accuracy    <       3.31467282 Ry

     total magnetization       =    -1.04 Bohr mag/cell
     absolute magnetization    =     6.02 Bohr mag/cell

     iteration #  9     ecut=    60.00 Ry     beta= 0.70
     Davidson diagonalization with overlap
     ethr =  1.01E-03,  avg # of iterations =  1.0

     total cpu time spent up to now is      293.4 secs

     total energy              =    -426.70922468 Ry
     Harris-Foulkes estimate   =    -427.09805325 Ry
     estimated scf accuracy    <       2.78832571 Ry

     total magnetization       =    -0.52 Bohr mag/cell
     absolute magnetization    =     5.89 Bohr mag/cell

     iteration # 10     ecut=    60.00 Ry     beta= 0.70
     Davidson diagonalization with overlap
     ethr =  1.01E-03,  avg # of iterations =  2.0

     total cpu time spent up to now is      317.8 secs

     total energy              =    -426.99607911 Ry
     Harris-Foulkes estimate   =    -426.99980570 Ry
     estimated scf accuracy    <       0.24671053 Ry

     total magnetization       =     0.65 Bohr mag/cell
     absolute magnetization    =     9.99 Bohr mag/cell

     iteration # 11     ecut=    60.00 Ry     beta= 0.70
     Davidson diagonalization with overlap
     ethr =  8.22E-04,  avg # of iterations =  1.0

     total cpu time spent up to now is      340.1 secs

     total energy              =    -427.00377490 Ry
     Harris-Foulkes estimate   =    -426.99957167 Ry
     estimated scf accuracy    <       0.30865186 Ry

     total magnetization       =     0.69 Bohr mag/cell
     absolute magnetization    =     9.99 Bohr mag/cell

     iteration # 12     ecut=    60.00 Ry     beta= 0.70
     Davidson diagonalization with overlap
     ethr =  8.22E-04,  avg # of iterations =  1.0

     total cpu time spent up to now is      362.2 secs

     total energy              =    -427.02589813 Ry
     Harris-Foulkes estimate   =    -427.00788715 Ry
     estimated scf accuracy    <       0.18965550 Ry

     total magnetization       =     0.60 Bohr mag/cell
     absolute magnetization    =    10.00 Bohr mag/cell

     iteration # 13     ecut=    60.00 Ry     beta= 0.70
     Davidson diagonalization with overlap
     ethr =  6.32E-04,  avg # of iterations =  1.0

     negative rho (up, down):  0.000E+00 3.297E-01

     total cpu time spent up to now is      384.3 secs

     total energy              =    -427.09240545 Ry
     Harris-Foulkes estimate   =    -427.03067125 Ry
     estimated scf accuracy    <       0.18515930 Ry

     total magnetization       =     0.51 Bohr mag/cell
     absolute magnetization    =    10.02 Bohr mag/cell

     iteration # 14     ecut=    60.00 Ry     beta= 0.70
     Davidson diagonalization with overlap
     ethr =  6.17E-04,  avg # of iterations =  4.8

     negative rho (up, down):  2.545E-08 8.452E-02

     total cpu time spent up to now is      411.0 secs

     total energy              =    -427.13382924 Ry
     Harris-Foulkes estimate   =    -427.12700262 Ry
     estimated scf accuracy    <       0.20814314 Ry

     total magnetization       =     0.12 Bohr mag/cell
     absolute magnetization    =    10.11 Bohr mag/cell

     iteration # 15     ecut=    60.00 Ry     beta= 0.70
     Davidson diagonalization with overlap
     ethr =  6.17E-04,  avg # of iterations =  1.8

     negative rho (up, down):  0.000E+00 3.882E-01

     total cpu time spent up to now is      434.3 secs

     total energy              =    -427.16654721 Ry
     Harris-Foulkes estimate   =    -427.14865856 Ry
     estimated scf accuracy    <       0.44225782 Ry

     total magnetization       =    -0.03 Bohr mag/cell
     absolute magnetization    =    10.48 Bohr mag/cell

     iteration # 16     ecut=    60.00 Ry     beta= 0.70
     Davidson diagonalization with overlap
     ethr =  6.17E-04,  avg # of iterations =  3.7

     negative rho (up, down):  0.000E+00 1.494E-02

     total cpu time spent up to now is      460.0 secs

     total energy              =    -427.04475180 Ry
     Harris-Foulkes estimate   =    -427.20051391 Ry
     estimated scf accuracy    <       0.84721703 Ry

     total magnetization       =    -0.42 Bohr mag/cell
     absolute magnetization    =    11.10 Bohr mag/cell

     iteration # 17     ecut=    60.00 Ry     beta= 0.70
     Davidson diagonalization with overlap
     ethr =  6.17E-04,  avg # of iterations =  2.5

     negative rho (up, down):  0.000E+00 2.038E-01

     total cpu time spent up to now is      485.8 secs

     total energy              =    -427.11636553 Ry
     Harris-Foulkes estimate   =    -427.11497646 Ry
     estimated scf accuracy    <       0.19036248 Ry

     total magnetization       =     0.27 Bohr mag/cell
     absolute magnetization    =    10.08 Bohr mag/cell

     iteration # 18     ecut=    60.00 Ry     beta= 0.70
     Davidson diagonalization with overlap
     ethr =  6.17E-04,  avg # of iterations =  1.1

     negative rho (up, down):  2.889E-08 2.066E-01

     total cpu time spent up to now is      508.0 secs

     total energy              =    -427.10908699 Ry
     Harris-Foulkes estimate   =    -427.11956755 Ry
     estimated scf accuracy    <       0.10017273 Ry

     total magnetization       =     0.07 Bohr mag/cell
     absolute magnetization    =    10.07 Bohr mag/cell

     iteration # 19     ecut=    60.00 Ry     beta= 0.70
     Davidson diagonalization with overlap
     ethr =  3.34E-04,  avg # of iterations =  2.8

     negative rho (up, down):  0.000E+00 8.976E-03

     total cpu time spent up to now is      531.4 secs

     total energy              =    -427.11201897 Ry
     Harris-Foulkes estimate   =    -427.11628154 Ry
     estimated scf accuracy    <       0.06203402 Ry

     total magnetization       =    -0.09 Bohr mag/cell
     absolute magnetization    =    10.08 Bohr mag/cell

     iteration # 20     ecut=    60.00 Ry     beta= 0.70
     Davidson diagonalization with overlap
     ethr =  2.07E-04,  avg # of iterations =  2.0

     negative rho (up, down):  2.611E-06 7.400E-02

     total cpu time spent up to now is      555.1 secs

     total energy              =    -427.10469887 Ry
     Harris-Foulkes estimate   =    -427.11850397 Ry
     estimated scf accuracy    <       0.12482576 Ry

     total magnetization       =    -0.52 Bohr mag/cell
     absolute magnetization    =    10.10 Bohr mag/cell

     iteration # 21     ecut=    60.00 Ry     beta= 0.70
     Davidson diagonalization with overlap
     ethr =  2.07E-04,  avg # of iterations =  2.1

     negative rho (up, down):  0.000E+00 6.844E-03

     total cpu time spent up to now is      579.0 secs

     total energy              =    -427.10565564 Ry
     Harris-Foulkes estimate   =    -427.11003672 Ry
     estimated scf accuracy    <       0.02517286 Ry

     total magnetization       =    -0.28 Bohr mag/cell
     absolute magnetization    =    10.09 Bohr mag/cell

     iteration # 22     ecut=    60.00 Ry     beta= 0.70
     Davidson diagonalization with overlap
     ethr =  8.39E-05,  avg # of iterations =  4.7

     negative rho (up, down):  0.000E+00 3.958E-04

     total cpu time spent up to now is      608.7 secs

     total energy              =    -427.11031004 Ry
     Harris-Foulkes estimate   =    -427.11186689 Ry
     estimated scf accuracy    <       0.02048463 Ry

     total magnetization       =     0.17 Bohr mag/cell
     absolute magnetization    =    10.09 Bohr mag/cell

     iteration # 23     ecut=    60.00 Ry     beta= 0.70
     Davidson diagonalization with overlap
     ethr =  6.83E-05,  avg # of iterations =  1.1

     negative rho (up, down):  0.000E+00 1.389E-05

     total cpu time spent up to now is      631.2 secs

     total energy              =    -427.10981035 Ry
     Harris-Foulkes estimate   =    -427.11100441 Ry
     estimated scf accuracy    <       0.00210616 Ry

     total magnetization       =    -0.03 Bohr mag/cell
     absolute magnetization    =    10.10 Bohr mag/cell

     iteration # 24     ecut=    60.00 Ry     beta= 0.70
     Davidson diagonalization with overlap
     ethr =  7.02E-06,  avg # of iterations =  6.2

     negative rho (up, down):  0.000E+00 6.250E-05

     total cpu time spent up to now is      661.5 secs

     total energy              =    -427.11981914 Ry
     Harris-Foulkes estimate   =    -427.12137439 Ry
     estimated scf accuracy    <       0.01408701 Ry

     total magnetization       =     0.04 Bohr mag/cell
     absolute magnetization    =    10.20 Bohr mag/cell

     iteration # 25     ecut=    60.00 Ry     beta= 0.70
     Davidson diagonalization with overlap
     ethr =  7.02E-06,  avg # of iterations =  2.5

     negative rho (up, down):  0.000E+00 1.389E-05

     total cpu time spent up to now is      687.8 secs

     total energy              =    -427.11903389 Ry
     Harris-Foulkes estimate   =    -427.12011270 Ry
     estimated scf accuracy    <       0.00675593 Ry

     total magnetization       =     0.01 Bohr mag/cell
     absolute magnetization    =    10.19 Bohr mag/cell

     iteration # 26     ecut=    60.00 Ry     beta= 0.70
     Davidson diagonalization with overlap
     ethr =  7.02E-06,  avg # of iterations =  3.0

     negative rho (up, down):  0.000E+00 1.389E-05

     total cpu time spent up to now is      716.5 secs

     total energy              =    -427.11958738 Ry
     Harris-Foulkes estimate   =    -427.11957666 Ry
     estimated scf accuracy    <       0.00106761 Ry

     total magnetization       =    -0.02 Bohr mag/cell
     absolute magnetization    =    10.18 Bohr mag/cell

     iteration # 27     ecut=    60.00 Ry     beta= 0.70
     Davidson diagonalization with overlap
     ethr =  3.56E-06,  avg # of iterations =  1.0

     negative rho (up, down):  0.000E+00 5.556E-05

     total cpu time spent up to now is      739.1 secs

     total energy              =    -427.11933981 Ry
     Harris-Foulkes estimate   =    -427.11962302 Ry
     estimated scf accuracy    <       0.00065731 Ry

     total magnetization       =    -0.01 Bohr mag/cell
     absolute magnetization    =    10.18 Bohr mag/cell

     iteration # 28     ecut=    60.00 Ry     beta= 0.70
     Davidson diagonalization with overlap
     ethr =  2.19E-06,  avg # of iterations =  3.4

     negative rho (up, down):  0.000E+00 5.556E-05

     total cpu time spent up to now is      768.9 secs

     total energy              =    -427.12016864 Ry
     Harris-Foulkes estimate   =    -427.12018530 Ry
     estimated scf accuracy    <       0.00061300 Ry

     total magnetization       =    -0.02 Bohr mag/cell
     absolute magnetization    =    10.17 Bohr mag/cell

     iteration # 29     ecut=    60.00 Ry     beta= 0.70
     Davidson diagonalization with overlap
     ethr =  2.04E-06,  avg # of iterations =  1.0

     negative rho (up, down):  0.000E+00 9.722E-05

     total cpu time spent up to now is      791.3 secs

     total energy              =    -427.12006441 Ry
     Harris-Foulkes estimate   =    -427.12020385 Ry
     estimated scf accuracy    <       0.00067090 Ry

     total magnetization       =    -0.02 Bohr mag/cell
     absolute magnetization    =    10.17 Bohr mag/cell

     iteration # 30     ecut=    60.00 Ry     beta= 0.70
     Davidson diagonalization with overlap
     ethr =  2.04E-06,  avg # of iterations =  1.5

     negative rho (up, down):  0.000E+00 1.111E-04

     total cpu time spent up to now is      814.9 secs

     total energy              =    -427.12012091 Ry
     Harris-Foulkes estimate   =    -427.12012409 Ry
     estimated scf accuracy    <       0.00003569 Ry

     total magnetization       =    -0.01 Bohr mag/cell
     absolute magnetization    =    10.18 Bohr mag/cell

     iteration # 31     ecut=    60.00 Ry     beta= 0.70
     Davidson diagonalization with overlap
     ethr =  1.19E-07,  avg # of iterations =  3.4

     negative rho (up, down):  0.000E+00 1.111E-04

     total cpu time spent up to now is      841.8 secs

     total energy              =    -427.12012699 Ry
     Harris-Foulkes estimate   =    -427.12013101 Ry
     estimated scf accuracy    <       0.00000584 Ry

     total magnetization       =     0.00 Bohr mag/cell
     absolute magnetization    =    10.18 Bohr mag/cell

     iteration # 32     ecut=    60.00 Ry     beta= 0.70
     Davidson diagonalization with overlap
     ethr =  1.95E-08,  avg # of iterations =  3.8

     negative rho (up, down):  0.000E+00 9.722E-05

     total cpu time spent up to now is      873.4 secs

     total energy              =    -427.12012531 Ry
     Harris-Foulkes estimate   =    -427.12013580 Ry
     estimated scf accuracy    <       0.00004405 Ry

     total magnetization       =    -0.00 Bohr mag/cell
     absolute magnetization    =    10.18 Bohr mag/cell

     iteration # 33     ecut=    60.00 Ry     beta= 0.70
     Davidson diagonalization with overlap
     ethr =  1.95E-08,  avg # of iterations =  2.6

     negative rho (up, down):  0.000E+00 1.111E-04

     total cpu time spent up to now is      901.3 secs

     total energy              =    -427.12013137 Ry
     Harris-Foulkes estimate   =    -427.12013158 Ry
     estimated scf accuracy    <       0.00000415 Ry

     total magnetization       =     0.00 Bohr mag/cell
     absolute magnetization    =    10.18 Bohr mag/cell

     iteration # 34     ecut=    60.00 Ry     beta= 0.70
     Davidson diagonalization with overlap
     ethr =  1.38E-08,  avg # of iterations =  2.2

     negative rho (up, down):  0.000E+00 1.111E-04

     total cpu time spent up to now is      926.2 secs

     total energy              =    -427.12013157 Ry
     Harris-Foulkes estimate   =    -427.12013310 Ry
     estimated scf accuracy    <       0.00001043 Ry

     total magnetization       =     0.01 Bohr mag/cell
     absolute magnetization    =    10.18 Bohr mag/cell

     iteration # 35     ecut=    60.00 Ry     beta= 0.70
     Davidson diagonalization with overlap
     ethr =  1.38E-08,  avg # of iterations =  1.7

     negative rho (up, down):  0.000E+00 1.111E-04

     total cpu time spent up to now is      950.0 secs

     total energy              =    -427.12013356 Ry
     Harris-Foulkes estimate   =    -427.12013373 Ry
     estimated scf accuracy    <       0.00000306 Ry

     total magnetization       =     0.00 Bohr mag/cell
     absolute magnetization    =    10.18 Bohr mag/cell

     iteration # 36     ecut=    60.00 Ry     beta= 0.70
     Davidson diagonalization with overlap
     ethr =  1.02E-08,  avg # of iterations =  1.0

     negative rho (up, down):  0.000E+00 1.111E-04

     total cpu time spent up to now is      972.2 secs

     total energy              =    -427.12013334 Ry
     Harris-Foulkes estimate   =    -427.12013371 Ry
     estimated scf accuracy    <       0.00000221 Ry

     total magnetization       =     0.00 Bohr mag/cell
     absolute magnetization    =    10.18 Bohr mag/cell

     iteration # 37     ecut=    60.00 Ry     beta= 0.70
     Davidson diagonalization with overlap
     ethr =  7.36E-09,  avg # of iterations =  1.0

     negative rho (up, down):  0.000E+00 1.111E-04

     Magnetic moment per site:
     atom:    1    charge:   14.9622    magn:    5.0139    constr:    0.0000
     atom:    2    charge:   14.9616    magn:   -5.0144    constr:    0.0000

     total cpu time spent up to now is      994.2 secs

     End of self-consistent calculation

 ------ SPIN UP ------------


          k = 0.0625 0.0625 0.0625 ( 36170 PWs)   bands (ev):

   -86.5318 -81.1427 -55.2338 -55.2338 -55.2338 -49.9628 -49.9628 -49.9628
    -7.2273  -7.2273  -7.2264  -7.2264  -7.2264  -4.5468  -3.5128  -2.7923
    -2.7909  -2.7909  -2.7909

          k = 0.0625 0.0625 0.1875 ( 36236 PWs)   bands (ev):

   -86.5318 -81.1427 -55.2338 -55.2338 -55.2338 -49.9628 -49.9628 -49.9628
    -7.2273  -7.2273  -7.2265  -7.2265  -7.2264  -4.5446  -3.5110  -2.7923
    -2.7918  -2.7911  -2.7911

          k = 0.0625 0.0625 0.3125 ( 36223 PWs)   bands (ev):

   -86.5318 -81.1427 -55.2338 -55.2338 -55.2338 -49.9628 -49.9628 -49.9628
    -7.2273  -7.2272  -7.2265  -7.2265  -7.2264  -4.5414  -3.5086  -2.7923
    -2.7914  -2.7913  -2.7910

          k = 0.0625 0.0625 0.4375 ( 36210 PWs)   bands (ev):

   -86.5318 -81.1427 -55.2338 -55.2338 -55.2338 -49.9628 -49.9628 -49.9628
    -7.2273  -7.2272  -7.2265  -7.2265  -7.2264  -4.5391  -3.5068  -2.7923
    -2.7915  -2.7910  -2.7904

          k = 0.0625 0.1875 0.1875 ( 36243 PWs)   bands (ev):

   -86.5318 -81.1427 -55.2338 -55.2338 -55.2338 -49.9628 -49.9628 -49.9628
    -7.2273  -7.2273  -7.2265  -7.2265  -7.2264  -4.5425  -3.5087  -2.7920
    -2.7916  -2.7912  -2.7911

          k = 0.0625 0.1875 0.3125 ( 36232 PWs)   bands (ev):

   -86.5318 -81.1427 -55.2338 -55.2338 -55.2338 -49.9628 -49.9628 -49.9628
    -7.2273  -7.2272  -7.2265  -7.2265  -7.2264  -4.5395  -3.5053  -2.7919
    -2.7915  -2.7913  -2.7908

          k = 0.0625 0.1875 0.4375 ( 36237 PWs)   bands (ev):

   -86.5318 -81.1427 -55.2338 -55.2338 -55.2338 -49.9628 -49.9628 -49.9628
    -7.2273  -7.2272  -7.2265  -7.2265  -7.2265  -4.5375  -3.5029  -2.7919
    -2.7915  -2.7910  -2.7903

          k = 0.0625 0.3125 0.3125 ( 36239 PWs)   bands (ev):

   -86.5318 -81.1427 -55.2338 -55.2338 -55.2338 -49.9628 -49.9628 -49.9628
    -7.2273  -7.2272  -7.2265  -7.2265  -7.2265  -4.5369  -3.5006  -2.7917
    -2.7916  -2.7913  -2.7912

          k = 0.0625 0.3125 0.4375 ( 36234 PWs)   bands (ev):

   -86.5318 -81.1427 -55.2338 -55.2338 -55.2338 -49.9628 -49.9628 -49.9628
    -7.2273  -7.2271  -7.2265  -7.2265  -7.2265  -4.5350  -3.4973  -2.7918
    -2.7915  -2.7915  -2.7899

          k = 0.0625 0.4375 0.4375 ( 36210 PWs)   bands (ev):

   -86.5318 -81.1427 -55.2338 -55.2338 -55.2338 -49.9628 -49.9628 -49.9628
    -7.2273  -7.2271  -7.2265  -7.2265  -7.2265  -4.5333  -3.4932  -2.7919
    -2.7914  -2.7913  -2.7894

          k = 0.1875 0.1875 0.1875 ( 36222 PWs)   bands (ev):

   -86.5318 -81.1427 -55.2338 -55.2338 -55.2338 -49.9628 -49.9628 -49.9628
    -7.2273  -7.2273  -7.2264  -7.2264  -7.2264  -4.5405  -3.5059  -2.7915
    -2.7915  -2.7912  -2.7912

          k = 0.1875 0.1875 0.3125 ( 36219 PWs)   bands (ev):

   -86.5318 -81.1427 -55.2338 -55.2338 -55.2338 -49.9628 -49.9628 -49.9628
    -7.2273  -7.2272  -7.2265  -7.2265  -7.2264  -4.5378  -3.5019  -2.7915
    -2.7915  -2.7914  -2.7907

          k = 0.1875 0.1875 0.4375 ( 36195 PWs)   bands (ev):

   -86.5318 -81.1427 -55.2338 -55.2338 -55.2338 -49.9628 -49.9628 -49.9628
    -7.2273  -7.2271  -7.2265  -7.2265  -7.2264  -4.5358  -3.4991  -2.7917
    -2.7914  -2.7913  -2.7901

          k = 0.1875 0.3125 0.3125 ( 36232 PWs)   bands (ev):

   -86.5318 -81.1427 -55.2338 -55.2338 -55.2338 -49.9628 -49.9628 -49.9628
    -7.2272  -7.2272  -7.2265  -7.2265  -7.2265  -4.5352  -3.4971  -2.7917
    -2.7914  -2.7911  -2.7903

          k = 0.1875 0.3125 0.4375 ( 36204 PWs)   bands (ev):

   -86.5318 -81.1427 -55.2338 -55.2338 -55.2338 -49.9628 -49.9628 -49.9628
    -7.2272  -7.2271  -7.2265  -7.2265  -7.2265  -4.5334  -3.4936  -2.7919
    -2.7915  -2.7910  -2.7898

          k = 0.1875 0.4375 0.4375 ( 36199 PWs)   bands (ev):

   -86.5318 -81.1427 -55.2338 -55.2338 -55.2338 -49.9628 -49.9628 -49.9628
    -7.2272  -7.2271  -7.2265  -7.2265  -7.2265  -4.5318  -3.4897  -2.7920
    -2.7916  -2.7916  -2.7907

          k = 0.3125 0.3125 0.3125 ( 36201 PWs)   bands (ev):

   -86.5318 -81.1427 -55.2338 -55.2338 -55.2338 -49.9628 -49.9628 -49.9628
    -7.2272  -7.2272  -7.2265  -7.2265  -7.2265  -4.5328  -3.4920  -2.7918
    -2.7918  -2.7903  -2.7903

          k = 0.3125 0.3125 0.4375 ( 36166 PWs)   bands (ev):

   -86.5318 -81.1427 -55.2338 -55.2338 -55.2338 -49.9628 -49.9628 -49.9628
    -7.2272  -7.2271  -7.2265  -7.2264  -7.2264  -4.5311  -3.4884  -2.7920
    -2.7918  -2.7917  -2.7903

          k = 0.3125 0.4375 0.4375 ( 36191 PWs)   bands (ev):

   -86.5318 -81.1427 -55.2338 -55.2338 -55.2338 -49.9628 -49.9628 -49.9628
    -7.2272  -7.2271  -7.2265  -7.2265  -7.2265  -4.5295  -3.4847  -2.7921
    -2.7920  -2.7920  -2.7900

          k = 0.4375 0.4375 0.4375 ( 36150 PWs)   bands (ev):

   -86.5318 -81.1427 -55.2338 -55.2338 -55.2338 -49.9628 -49.9628 -49.9628
    -7.2271  -7.2271  -7.2265  -7.2264  -7.2264  -4.5279  -3.4811  -2.7922
    -2.7922  -2.7922  -2.7894

 ------ SPIN DOWN ----------


          k = 0.0625 0.0625 0.0625 ( 36170 PWs)   bands (ev):

   -86.5310 -81.1428 -55.2330 -55.2330 -55.2330 -49.9629 -49.9629 -49.9629
    -7.2262  -7.2262  -7.2259  -7.2259  -7.2259  -4.5463  -3.5134  -2.7918
    -2.7918  -2.7915  -2.7915

          k = 0.0625 0.0625 0.1875 ( 36236 PWs)   bands (ev):

   -86.5310 -81.1428 -55.2330 -55.2330 -55.2330 -49.9629 -49.9629 -49.9629
    -7.2262  -7.2262  -7.2260  -7.2259  -7.2259  -4.5441  -3.5116  -2.7918
    -2.7917  -2.7917  -2.7914

          k = 0.0625 0.0625 0.3125 ( 36223 PWs)   bands (ev):

   -86.5310 -81.1428 -55.2330 -55.2330 -55.2330 -49.9629 -49.9629 -49.9629
    -7.2263  -7.2262  -7.2260  -7.2260  -7.2259  -4.5409  -3.5091  -2.7920
    -2.7918  -2.7916  -2.7905

          k = 0.0625 0.0625 0.4375 ( 36210 PWs)   bands (ev):

   -86.5310 -81.1428 -55.2330 -55.2330 -55.2330 -49.9629 -49.9629 -49.9629
    -7.2263  -7.2261  -7.2260  -7.2260  -7.2259  -4.5386  -3.5074  -2.7922
    -2.7918  -2.7915  -2.7900

          k = 0.0625 0.1875 0.1875 ( 36243 PWs)   bands (ev):

   -86.5310 -81.1428 -55.2330 -55.2330 -55.2330 -49.9629 -49.9629 -49.9629
    -7.2262  -7.2262  -7.2260  -7.2259  -7.2259  -4.5420  -3.5092  -2.7919
    -2.7917  -2.7916  -2.7911

          k = 0.0625 0.1875 0.3125 ( 36232 PWs)   bands (ev):

   -86.5310 -81.1428 -55.2330 -55.2330 -55.2330 -49.9629 -49.9629 -49.9629
    -7.2262  -7.2262  -7.2260  -7.2260  -7.2259  -4.5390  -3.5059  -2.7921
    -2.7917  -2.7915  -2.7904

          k = 0.0625 0.1875 0.4375 ( 36237 PWs)   bands (ev):

   -86.5310 -81.1428 -55.2330 -55.2330 -55.2330 -49.9629 -49.9629 -49.9629
    -7.2262  -7.2261  -7.2260  -7.2260  -7.2259  -4.5369  -3.5035  -2.7922
    -2.7917  -2.7914  -2.7898

          k = 0.0625 0.3125 0.3125 ( 36239 PWs)   bands (ev):

   -86.5310 -81.1428 -55.2330 -55.2330 -55.2330 -49.9629 -49.9629 -49.9629
    -7.2262  -7.2261  -7.2260  -7.2260  -7.2260  -4.5364  -3.5012  -2.7923
    -2.7919  -2.7911  -2.7899

          k = 0.0625 0.3125 0.4375 ( 36234 PWs)   bands (ev):

   -86.5310 -81.1428 -55.2330 -55.2330 -55.2330 -49.9629 -49.9629 -49.9629
    -7.2262  -7.2261  -7.2260  -7.2260  -7.2260  -4.5345  -3.4979  -2.7924
    -2.7920  -2.7910  -2.7894

          k = 0.0625 0.4375 0.4375 ( 36210 PWs)   bands (ev):

   -86.5310 -81.1428 -55.2330 -55.2330 -55.2330 -49.9629 -49.9629 -49.9629
    -7.2262  -7.2260  -7.2260  -7.2260  -7.2260  -4.5328  -3.4938  -2.7925
    -2.7921  -2.7908  -2.7890

          k = 0.1875 0.1875 0.1875 ( 36222 PWs)   bands (ev):

   -86.5310 -81.1428 -55.2330 -55.2330 -55.2330 -49.9629 -49.9629 -49.9629
    -7.2262  -7.2262  -7.2259  -7.2259  -7.2259  -4.5400  -3.5064  -2.7919
    -2.7919  -2.7910  -2.7910

          k = 0.1875 0.1875 0.3125 ( 36219 PWs)   bands (ev):

   -86.5310 -81.1428 -55.2330 -55.2330 -55.2330 -49.9629 -49.9629 -49.9629
    -7.2262  -7.2262  -7.2260  -7.2259  -7.2259  -4.5373  -3.5025  -2.7922
    -2.7921  -2.7910  -2.7903

          k = 0.1875 0.1875 0.4375 ( 36195 PWs)   bands (ev):

   -86.5310 -81.1428 -55.2330 -55.2330 -55.2330 -49.9629 -49.9629 -49.9629
    -7.2262  -7.2261  -7.2260  -7.2259  -7.2259  -4.5353  -3.4996  -2.7923
    -2.7921  -2.7910  -2.7897

          k = 0.1875 0.3125 0.3125 ( 36232 PWs)   bands (ev):

   -86.5310 -81.1428 -55.2330 -55.2330 -55.2330 -49.9629 -49.9629 -49.9629
    -7.2262  -7.2261  -7.2260  -7.2260  -7.2259  -4.5347  -3.4976  -2.7923
    -2.7922  -2.7906  -2.7899

          k = 0.1875 0.3125 0.4375 ( 36204 PWs)   bands (ev):

   -86.5310 -81.1428 -55.2330 -55.2330 -55.2330 -49.9629 -49.9629 -49.9629
    -7.2262  -7.2261  -7.2260  -7.2260  -7.2259  -4.5329  -3.4942  -2.7925
    -2.7923  -2.7921  -2.7905

          k = 0.1875 0.4375 0.4375 ( 36199 PWs)   bands (ev):

   -86.5310 -81.1428 -55.2330 -55.2330 -55.2330 -49.9629 -49.9629 -49.9629
    -7.2261  -7.2260  -7.2260  -7.2260  -7.2260  -4.5312  -3.4903  -2.7926
    -2.7923  -2.7923  -2.7903

          k = 0.3125 0.3125 0.3125 ( 36201 PWs)   bands (ev):

   -86.5310 -81.1428 -55.2330 -55.2330 -55.2330 -49.9629 -49.9629 -49.9629
    -7.2261  -7.2261  -7.2260  -7.2260  -7.2259  -4.5323  -3.4926  -2.7925
    -2.7925  -2.7898  -2.7898

          k = 0.3125 0.3125 0.4375 ( 36166 PWs)   bands (ev):

   -86.5310 -81.1428 -55.2330 -55.2330 -55.2330 -49.9629 -49.9629 -49.9629
    -7.2261  -7.2261  -7.2260  -7.2259  -7.2259  -4.5306  -3.4890  -2.7927
    -2.7924  -2.7898  -2.7892

          k = 0.3125 0.4375 0.4375 ( 36191 PWs)   bands (ev):

   -86.5310 -81.1428 -55.2330 -55.2330 -55.2330 -49.9629 -49.9629 -49.9629
    -7.2261  -7.2260  -7.2260  -7.2260  -7.2260  -4.5290  -3.4853  -2.7928
    -2.7927  -2.7926  -2.7895

          k = 0.4375 0.4375 0.4375 ( 36150 PWs)   bands (ev):

   -86.5310 -81.1428 -55.2330 -55.2330 -55.2330 -49.9629 -49.9629 -49.9629
    -7.2261  -7.2261  -7.2260  -7.2259  -7.2259  -4.5274  -3.4817  -2.7929
    -2.7929  -2.7929  -2.7889

     the Fermi energy is    -3.1389 ev

!    total energy              =    -427.12013352 Ry
     Harris-Foulkes estimate   =    -427.12013357 Ry
     estimated scf accuracy    <       0.00000009 Ry

     The total energy is the sum of the following terms:

     one-electron contribution =    -531.03381816 Ry
     hartree contribution      =     257.69545817 Ry
     xc contribution           =     -55.42472882 Ry
     ewald contribution        =     -98.36659809 Ry
     smearing contrib. (-TS)   =       0.00955339 Ry

     total magnetization       =    -0.00 Bohr mag/cell
     absolute magnetization    =    10.18 Bohr mag/cell

     convergence has been achieved in  37 iterations

     Writing output data file mn-8.81.save/

     init_run     :     10.17s CPU     10.73s WALL (       1 calls)
     electrons    :    944.69s CPU    982.06s WALL (       1 calls)

     Called by init_run:
     wfcinit      :      6.79s CPU      6.92s WALL (       1 calls)
     potinit      :      1.08s CPU      1.13s WALL (       1 calls)
     hinit0       :      0.92s CPU      0.94s WALL (       1 calls)

     Called by electrons:
     c_bands      :    659.88s CPU    670.89s WALL (      37 calls)
     sum_band     :    210.95s CPU    224.76s WALL (      37 calls)
     v_of_rho     :     27.89s CPU     28.67s WALL (      38 calls)
     newd         :     38.64s CPU     50.53s WALL (      38 calls)
     mix_rho      :      5.83s CPU      5.93s WALL (      37 calls)

     Called by c_bands:
     init_us_2    :      7.05s CPU      7.10s WALL (    3000 calls)
     cegterg      :    631.85s CPU    642.75s WALL (    1480 calls)

     Called by sum_band:
     sum_band:bec :      0.04s CPU      0.04s WALL (    1480 calls)
     addusdens    :     95.55s CPU    107.30s WALL (      37 calls)

     Called by *egterg:
     h_psi        :    466.82s CPU    477.19s WALL (    5734 calls)
     s_psi        :     26.91s CPU     27.05s WALL (    5734 calls)
     g_psi        :      2.35s CPU      2.36s WALL (    4214 calls)
     cdiaghg      :      3.92s CPU      3.94s WALL (    5694 calls)

     Called by h_psi:
     h_psi:pot    :    465.23s CPU    475.58s WALL (    5734 calls)
     h_psi:calbec :     41.70s CPU     42.08s WALL (    5734 calls)
     vloc_psi     :    395.49s CPU    405.36s WALL (    5734 calls)
     add_vuspsi   :     27.99s CPU     28.12s WALL (    5734 calls)

     General routines
     calbec       :     57.54s CPU     58.00s WALL (    7214 calls)
     fft          :     19.26s CPU     20.03s WALL (     944 calls)
     ffts         :      0.85s CPU      0.89s WALL (     150 calls)
     fftw         :    421.21s CPU    431.55s WALL (  169970 calls)
     interpolate  :      2.22s CPU      2.32s WALL (      76 calls)

     Parallel routines
     fft_scatt_xy :     44.67s CPU     45.72s WALL (  171064 calls)
     fft_scatt_yz :    168.71s CPU    173.54s WALL (  171064 calls)

     PWSCF        :  15m56.59s CPU  16m34.92s WALL


   This run was terminated on:   0: 6:59  29May2022            

=------------------------------------------------------------------------------=
   JOB DONE.
=------------------------------------------------------------------------------=
