
     Program PWSCF v.6.4.1 starts on 23Aug2022 at  1:51: 2 

     This program is part of the open-source Quantum ESPRESSO suite
     for quantum simulation of materials; please cite
         "P. Giannozzi et al., J. Phys.:Condens. Matter 21 395502 (2009);
         "P. Giannozzi et al., J. Phys.:Condens. Matter 29 465901 (2017);
          URL http://www.quantum-espresso.org", 
     in publications or presentations arising from this work. More details at
     http://www.quantum-espresso.org/quote

     Parallel version (MPI), running on     6 processors

     MPI processes distributed on     1 nodes
     R & G space division:  proc/nbgrp/npool/nimage =       6
     Reading input from distance-4.5.in

     Current dimensions of program PWSCF are:
     Max number of different atomic species (ntypx) = 10
     Max number of k-points (npk) =  40000
     Max angular momentum in pseudopotentials (lmaxx) =  3

     IMPORTANT: XC functional enforced from input :
     Exchange-correlation      = RVV10 ( 1  4 13  4 3 0)
     Any further DFT definition will be discarded
     Please, verify this is what you really want

               file H.pbe-rrkjus.UPF: wavefunction(s)  1S renormalized
               file V.pbe-spnl-rrkjus_psl.1.0.0.UPF: wavefunction(s)  3P 3D renormalized

     Subspace diagonalization in iterative solution of the eigenvalue problem:
     a serial algorithm will be used


     Parallelization info
     --------------------
     sticks:   dense  smooth     PW     G-vecs:    dense   smooth      PW
     Min        3051    1746    432               270999   117096   14629
     Max        3053    1747    437               271001   117099   14630
     Sum       18313   10477   2611              1626001   702581   87777



     bravais-lattice index     =            4
     lattice parameter (alat)  =      23.2937  a.u.
     unit-cell volume          =    8879.8548 (a.u.)^3
     number of atoms/cell      =           52
     number of atomic types    =            3
     number of electrons       =       211.00
     number of Kohn-Sham states=          127
     kinetic-energy cutoff     =      70.0000  Ry
     charge density cutoff     =     490.0000  Ry
     convergence threshold     =      1.0E-06
     mixing beta               =       0.7000
     number of iterations used =            8  plain     mixing
     Exchange-correlation      = RVV10 ( 1  4 13  4 3 0)

     celldm(1)=  23.293684  celldm(2)=   0.000000  celldm(3)=   0.811261
     celldm(4)=   0.000000  celldm(5)=   0.000000  celldm(6)=   0.000000

     crystal axes: (cart. coord. in units of alat)
               a(1) = (   1.000000   0.000000   0.000000 )  
               a(2) = (  -0.500000   0.866025   0.000000 )  
               a(3) = (   0.000000   0.000000   0.811261 )  

     reciprocal axes: (cart. coord. in units 2 pi/alat)
               b(1) = (  1.000000  0.577350 -0.000000 )  
               b(2) = (  0.000000  1.154701  0.000000 )  
               b(3) = (  0.000000 -0.000000  1.232649 )  


     PseudoPot. # 1 for H  read from file:
     /home/cristian/Escritorio/Proyecto_Grafeno/pseudopotenciales/H.pbe-rrkjus.UPF
     MD5 check sum: 7cc9d459525c9a0585f487a71c3c9563
     Pseudo is Ultrasoft, Zval =  1.0
     Generated by new atomic code, or converted to UPF format
     Using radial grid of 1061 points,  2 beta functions with: 
                l(1) =   0
                l(2) =   0
     Q(r) pseudized with 0 coefficients 


     PseudoPot. # 2 for C  read from file:
     /home/cristian/Escritorio/Proyecto_Grafeno/pseudopotenciales/C.pbe-n-rrkjus_psl.1.0.0.UPF
     MD5 check sum: 1fdd950c42eb37d8afe3dd2f8d12311e
     Pseudo is Ultrasoft + core correction, Zval =  4.0
     Generated using "atomic" code by A. Dal Corso v.6.3MaX
     Using radial grid of 1073 points,  4 beta functions with: 
                l(1) =   0
                l(2) =   0
                l(3) =   1
                l(4) =   1
     Q(r) pseudized with 0 coefficients 


     PseudoPot. # 3 for V  read from file:
     /home/cristian/Escritorio/Proyecto_Grafeno/pseudopotenciales/V.pbe-spnl-rrkjus_psl.1.0.0.UPF
     MD5 check sum: 79b3eb63147daf0b665d9f1bcc691206
     Pseudo is Ultrasoft + core correction, Zval = 13.0
     Generated using "atomic" code by A. Dal Corso v.6.2.2
     Using radial grid of 1181 points,  6 beta functions with: 
                l(1) =   0
                l(2) =   0
                l(3) =   1
                l(4) =   1
                l(5) =   2
                l(6) =   2
     Q(r) pseudized with 0 coefficients 


     vdW kernel table read from file rVV10_kernel_table
     MD5 check sum: b8e2538accc0c0b3206b45ba4daaba6c

     atomic species   valence    mass     pseudopotential
        H              1.00     1.00794     H ( 1.00)
        C              4.00    12.01070     C ( 1.00)
        V             13.00    50.94150     V ( 1.00)

     Starting magnetic structure 
     atomic species   magnetization
        H            0.500
        C            0.300
        V            0.800

      2 Sym. Ops. (no inversion) found


                                    s                        frac. trans.

      isym =  1     identity                                     

 cryst.   s( 1) = (     1          0          0      )
                  (     0          1          0      )
                  (     0          0          1      )

 cart.    s( 1) = (  1.0000000  0.0000000  0.0000000 )
                  (  0.0000000  1.0000000  0.0000000 )
                  (  0.0000000  0.0000000  1.0000000 )


      isym =  2     inv. 180 deg rotation - cryst. axis [1,1,0]  

 cryst.   s( 2) = (     0         -1          0      )
                  (    -1          0          0      )
                  (     0          0          1      )

 cart.    s( 2) = (  0.5000000 -0.8660254  0.0000000 )
                  ( -0.8660254 -0.5000000  0.0000000 )
                  (  0.0000000  0.0000000  1.0000000 )


     point group C_s (m)    
     there are  2 classes
     the character table:

       E     s    
A'     1.00  1.00
A''    1.00 -1.00

     the symmetry operations in each class and the name of the first element:

     E        1
          identity                                               
     s        2
          inv. 180 deg rotation - cryst. axis [1,1,0]            

   Cartesian axes

     site n.     atom                  positions (alat units)
         1           H   tau(   1) = (   0.3000000   0.4041452   0.3650675  )
         2           H   tau(   2) = (   0.3000000   0.4041452   0.4260802  )
         3           C   tau(   3) = (   0.0000000   0.0000000   0.0000000  )
         4           C   tau(   4) = (   0.0000000   0.1154701   0.0000000  )
         5           C   tau(   5) = (  -0.1000000   0.1732051   0.0000000  )
         6           C   tau(   6) = (  -0.1000000   0.2886751   0.0000000  )
         7           C   tau(   7) = (  -0.2000000   0.3464102   0.0000000  )
         8           C   tau(   8) = (  -0.2000000   0.4618802   0.0000000  )
         9           C   tau(   9) = (  -0.3000000   0.5196152   0.0000000  )
        10           C   tau(  10) = (  -0.3000000   0.6350853   0.0000000  )
        11           C   tau(  11) = (  -0.4000000   0.6928203   0.0000000  )
        12           C   tau(  12) = (  -0.4000000   0.8082904   0.0000000  )
        13           C   tau(  13) = (   0.2000000   0.0000000   0.0000000  )
        14           C   tau(  14) = (   0.2000000   0.1154701   0.0000000  )
        15           C   tau(  15) = (   0.1000000   0.1732051   0.0000000  )
        16           C   tau(  16) = (   0.1000000   0.2886751   0.0000000  )
        17           C   tau(  17) = (   0.0000000   0.3464102   0.0000000  )
        18           C   tau(  18) = (   0.0000000   0.4618802   0.0000000  )
        19           C   tau(  19) = (  -0.1000000   0.5196152   0.0000000  )
        20           C   tau(  20) = (  -0.1000000   0.6350853   0.0000000  )
        21           C   tau(  21) = (  -0.2000000   0.6928203   0.0000000  )
        22           C   tau(  22) = (  -0.2000000   0.8082904   0.0000000  )
        23           C   tau(  23) = (   0.4000000   0.0000000   0.0000000  )
        24           C   tau(  24) = (   0.4000000   0.1154701   0.0000000  )
        25           C   tau(  25) = (   0.3000000   0.1732051   0.0000000  )
        26           C   tau(  26) = (   0.3000000   0.2886751   0.0000000  )
        27           C   tau(  27) = (   0.2000000   0.3464102   0.0000000  )
        28           V   tau(  28) = (   0.2000000   0.4618802   0.0000000  )
        29           C   tau(  29) = (   0.1000000   0.5196152   0.0000000  )
        30           C   tau(  30) = (   0.1000000   0.6350853   0.0000000  )
        31           C   tau(  31) = (   0.0000000   0.6928203   0.0000000  )
        32           C   tau(  32) = (   0.0000000   0.8082904   0.0000000  )
        33           C   tau(  33) = (   0.6000000   0.0000000   0.0000000  )
        34           C   tau(  34) = (   0.6000000   0.1154701   0.0000000  )
        35           C   tau(  35) = (   0.5000000   0.1732051   0.0000000  )
        36           C   tau(  36) = (   0.5000000   0.2886751   0.0000000  )
        37           C   tau(  37) = (   0.4000000   0.3464102   0.0000000  )
        38           C   tau(  38) = (   0.4000000   0.4618802   0.0000000  )
        39           C   tau(  39) = (   0.3000000   0.5196152   0.0000000  )
        40           C   tau(  40) = (   0.3000000   0.6350853   0.0000000  )
        41           C   tau(  41) = (   0.2000000   0.6928203   0.0000000  )
        42           C   tau(  42) = (   0.2000000   0.8082904   0.0000000  )
        43           C   tau(  43) = (   0.8000000   0.0000000   0.0000000  )
        44           C   tau(  44) = (   0.8000000   0.1154701   0.0000000  )
        45           C   tau(  45) = (   0.7000000   0.1732051   0.0000000  )
        46           C   tau(  46) = (   0.7000000   0.2886751   0.0000000  )
        47           C   tau(  47) = (   0.6000000   0.3464102   0.0000000  )
        48           C   tau(  48) = (   0.6000000   0.4618802   0.0000000  )
        49           C   tau(  49) = (   0.5000000   0.5196152   0.0000000  )
        50           C   tau(  50) = (   0.5000000   0.6350853   0.0000000  )
        51           C   tau(  51) = (   0.4000000   0.6928203   0.0000000  )
        52           C   tau(  52) = (   0.4000000   0.8082904   0.0000000  )

   Crystallographic axes

     site n.     atom                  positions (cryst. coord.)
         1           H   tau(   1) = (  0.5333333  0.4666667  0.4500000  )
         2           H   tau(   2) = (  0.5333333  0.4666667  0.5252072  )
         3           C   tau(   3) = (  0.0000000  0.0000000  0.0000000  )
         4           C   tau(   4) = (  0.0666667  0.1333333  0.0000000  )
         5           C   tau(   5) = (  0.0000000  0.2000000  0.0000000  )
         6           C   tau(   6) = (  0.0666667  0.3333333  0.0000000  )
         7           C   tau(   7) = (  0.0000000  0.4000000  0.0000000  )
         8           C   tau(   8) = (  0.0666667  0.5333333  0.0000000  )
         9           C   tau(   9) = (  0.0000000  0.6000000  0.0000000  )
        10           C   tau(  10) = (  0.0666667  0.7333333  0.0000000  )
        11           C   tau(  11) = (  0.0000000  0.8000000  0.0000000  )
        12           C   tau(  12) = (  0.0666667  0.9333333  0.0000000  )
        13           C   tau(  13) = (  0.2000000  0.0000000  0.0000000  )
        14           C   tau(  14) = (  0.2666667  0.1333333  0.0000000  )
        15           C   tau(  15) = (  0.2000000  0.2000000  0.0000000  )
        16           C   tau(  16) = (  0.2666667  0.3333333  0.0000000  )
        17           C   tau(  17) = (  0.2000000  0.4000000  0.0000000  )
        18           C   tau(  18) = (  0.2666667  0.5333333  0.0000000  )
        19           C   tau(  19) = (  0.2000000  0.6000000  0.0000000  )
        20           C   tau(  20) = (  0.2666667  0.7333333  0.0000000  )
        21           C   tau(  21) = (  0.2000000  0.8000000  0.0000000  )
        22           C   tau(  22) = (  0.2666667  0.9333333  0.0000000  )
        23           C   tau(  23) = (  0.4000000  0.0000000  0.0000000  )
        24           C   tau(  24) = (  0.4666667  0.1333333  0.0000000  )
        25           C   tau(  25) = (  0.4000000  0.2000000  0.0000000  )
        26           C   tau(  26) = (  0.4666667  0.3333333  0.0000000  )
        27           C   tau(  27) = (  0.4000000  0.4000000  0.0000000  )
        28           V   tau(  28) = (  0.4666667  0.5333333  0.0000000  )
        29           C   tau(  29) = (  0.4000000  0.6000000  0.0000000  )
        30           C   tau(  30) = (  0.4666667  0.7333333  0.0000000  )
        31           C   tau(  31) = (  0.4000000  0.8000000  0.0000000  )
        32           C   tau(  32) = (  0.4666667  0.9333333  0.0000000  )
        33           C   tau(  33) = (  0.6000000  0.0000000  0.0000000  )
        34           C   tau(  34) = (  0.6666667  0.1333333  0.0000000  )
        35           C   tau(  35) = (  0.6000000  0.2000000  0.0000000  )
        36           C   tau(  36) = (  0.6666667  0.3333333  0.0000000  )
        37           C   tau(  37) = (  0.6000000  0.4000000  0.0000000  )
        38           C   tau(  38) = (  0.6666667  0.5333333  0.0000000  )
        39           C   tau(  39) = (  0.6000000  0.6000000  0.0000000  )
        40           C   tau(  40) = (  0.6666667  0.7333333  0.0000000  )
        41           C   tau(  41) = (  0.6000000  0.8000000  0.0000000  )
        42           C   tau(  42) = (  0.6666667  0.9333333  0.0000000  )
        43           C   tau(  43) = (  0.8000000  0.0000000  0.0000000  )
        44           C   tau(  44) = (  0.8666667  0.1333333  0.0000000  )
        45           C   tau(  45) = (  0.8000000  0.2000000  0.0000000  )
        46           C   tau(  46) = (  0.8666667  0.3333333  0.0000000  )
        47           C   tau(  47) = (  0.8000000  0.4000000  0.0000000  )
        48           C   tau(  48) = (  0.8666667  0.5333333  0.0000000  )
        49           C   tau(  49) = (  0.8000000  0.6000000  0.0000000  )
        50           C   tau(  50) = (  0.8666667  0.7333333  0.0000000  )
        51           C   tau(  51) = (  0.8000000  0.8000000  0.0000000  )
        52           C   tau(  52) = (  0.8666667  0.9333333  0.0000000  )

     number of k points=     1  Marzari-Vanderbilt smearing, width (Ry)=  0.0010
                       cart. coord. in units 2pi/alat
        k(    1) = (   0.0000000   0.0000000   0.0000000), wk =   1.0000000

                       cryst. coord.
        k(    1) = (   0.0000000   0.0000000   0.0000000), wk =   1.0000000

     Dense  grid:  1626001 G-vectors     FFT dimensions: ( 180, 180, 135)

     Smooth grid:   702581 G-vectors     FFT dimensions: ( 125, 125, 108)

     Dynamical RAM for                 wfc:      28.36 MB

     Dynamical RAM for     wfc (w. buffer):      85.09 MB

     Dynamical RAM for           str. fact:      12.41 MB

     Dynamical RAM for           local pot:       0.00 MB

     Dynamical RAM for          nlocal pot:      92.46 MB

     Dynamical RAM for                qrad:      19.73 MB

     Dynamical RAM for          rho,v,vnew:      58.92 MB

     Dynamical RAM for               rhoin:      19.64 MB

     Dynamical RAM for            rho*nmix:     132.32 MB

     Dynamical RAM for           G-vectors:      16.40 MB

     Dynamical RAM for          h,s,v(r/c):      11.81 MB

     Dynamical RAM for          <psi|beta>:       0.80 MB

     Dynamical RAM for                 psi:     113.46 MB

     Dynamical RAM for                hpsi:     113.46 MB

     Dynamical RAM for                spsi:     113.46 MB

     Dynamical RAM for      wfcinit/wfcrot:      93.90 MB

     Dynamical RAM for           addusdens:     975.89 MB

     Estimated static dynamical RAM per process >     487.63 MB

     Estimated max dynamical RAM per process >       1.43 GB

     Estimated total dynamical RAM >       8.58 GB
     Generating pointlists ...
     new r_m :   0.0252 (alat units)  0.5862 (a.u.) for type    1
     new r_m :   0.0476 (alat units)  1.1095 (a.u.) for type    2
     new r_m :   0.0476 (alat units)  1.1095 (a.u.) for type    3

     Check: negative core charge=   -0.000002

     Initial potential from superposition of free atoms

     starting charge  210.80465, renormalised to  211.00000

     negative rho (up, down):  1.155E-04 1.276E-02


---------------------------------------------------------------------------------
Carrying out rVV10 run using the following parameters:
Nqs =      20    Nr_points =    1024   r_max =   100.000
b_value =  6.30000    beta =  0.00901
     q_mesh =  0.00010000  0.00030000  0.00058939  0.00100810
               0.00161396  0.00249058  0.00375900  0.00559430
               0.00824984  0.01209221  0.01765183  0.02569619
               0.03733578  0.05417739  0.07854596  0.11380545
               0.16482331  0.23864234  0.34545298  0.50000000

Gradients computed in Reciprocal space

---------------------------------------------------------------------------------


     Starting wfcs are  208 randomized atomic wfcs

     total cpu time spent up to now is       74.4 secs

     Self-consistent Calculation

     iteration #  1     ecut=    70.00 Ry     beta= 0.70
     Davidson diagonalization with overlap
     ethr =  1.00E-02,  avg # of iterations =  3.0

     negative rho (up, down):  2.079E-04 1.060E-02

     total cpu time spent up to now is      204.4 secs

     total energy              =    -753.63967709 Ry
     Harris-Foulkes estimate   =    -756.85753540 Ry
     estimated scf accuracy    <      10.96943324 Ry

     total magnetization       =     5.00 Bohr mag/cell
     absolute magnetization    =     6.01 Bohr mag/cell

     iteration #  2     ecut=    70.00 Ry     beta= 0.70
     Davidson diagonalization with overlap
     ethr =  5.20E-03,  avg # of iterations =  6.5

     negative rho (up, down):  2.351E-03 1.545E-01

     total cpu time spent up to now is      327.3 secs

     total energy              =    -747.38128830 Ry
     Harris-Foulkes estimate   =    -765.54104947 Ry
     estimated scf accuracy    <      62.54182107 Ry

     total magnetization       =     3.00 Bohr mag/cell
     absolute magnetization    =     3.36 Bohr mag/cell

     iteration #  3     ecut=    70.00 Ry     beta= 0.70
     Davidson diagonalization with overlap
     ethr =  5.20E-03,  avg # of iterations =  5.5

     negative rho (up, down):  1.616E-03 1.736E-02

     total cpu time spent up to now is      506.9 secs

     total energy              =    -755.74368403 Ry
     Harris-Foulkes estimate   =    -758.33827319 Ry
     estimated scf accuracy    <      12.46510181 Ry

     total magnetization       =     5.00 Bohr mag/cell
     absolute magnetization    =     5.77 Bohr mag/cell

     iteration #  4     ecut=    70.00 Ry     beta= 0.70
     Davidson diagonalization with overlap
     ethr =  5.20E-03,  avg # of iterations =  3.0

     negative rho (up, down):  4.057E-02 1.976E-02

     total cpu time spent up to now is      603.8 secs

     total energy              =    -757.09144444 Ry
     Harris-Foulkes estimate   =    -757.48252907 Ry
     estimated scf accuracy    <       1.18730496 Ry

     total magnetization       =     1.00 Bohr mag/cell
     absolute magnetization    =     1.70 Bohr mag/cell

     iteration #  5     ecut=    70.00 Ry     beta= 0.70
     Davidson diagonalization with overlap
     ethr =  5.63E-04,  avg # of iterations =  7.5

     negative rho (up, down):  4.202E-02 1.691E-02

     total cpu time spent up to now is      716.8 secs

     total energy              =    -757.23691730 Ry
     Harris-Foulkes estimate   =    -757.29941815 Ry
     estimated scf accuracy    <       0.21595649 Ry

     total magnetization       =     1.00 Bohr mag/cell
     absolute magnetization    =     1.49 Bohr mag/cell

     iteration #  6     ecut=    70.00 Ry     beta= 0.70
     Davidson diagonalization with overlap
     ethr =  1.02E-04,  avg # of iterations =  7.5

     negative rho (up, down):  2.944E-02 1.423E-02

     total cpu time spent up to now is      837.9 secs

     total energy              =    -757.27832462 Ry
     Harris-Foulkes estimate   =    -757.34135870 Ry
     estimated scf accuracy    <       0.29511845 Ry

     total magnetization       =     1.00 Bohr mag/cell
     absolute magnetization    =     1.42 Bohr mag/cell

     iteration #  7     ecut=    70.00 Ry     beta= 0.70
     Davidson diagonalization with overlap
     ethr =  1.02E-04,  avg # of iterations =  3.0

     negative rho (up, down):  3.037E-02 1.248E-02

     total cpu time spent up to now is      941.0 secs

     total energy              =    -757.31646493 Ry
     Harris-Foulkes estimate   =    -757.32161306 Ry
     estimated scf accuracy    <       0.03471062 Ry

     total magnetization       =     1.00 Bohr mag/cell
     absolute magnetization    =     1.36 Bohr mag/cell

     iteration #  8     ecut=    70.00 Ry     beta= 0.70
     Davidson diagonalization with overlap
     ethr =  1.65E-05,  avg # of iterations =  6.5

     negative rho (up, down):  3.039E-02 1.979E-02

     total cpu time spent up to now is     1061.1 secs

     total energy              =    -757.32333121 Ry
     Harris-Foulkes estimate   =    -757.32891969 Ry
     estimated scf accuracy    <       0.04134610 Ry

     total magnetization       =     1.00 Bohr mag/cell
     absolute magnetization    =     1.38 Bohr mag/cell

     iteration #  9     ecut=    70.00 Ry     beta= 0.70
     Davidson diagonalization with overlap
     ethr =  1.65E-05,  avg # of iterations =  3.0

     negative rho (up, down):  3.319E-02 1.462E-02

     total cpu time spent up to now is     1160.8 secs

     total energy              =    -757.32709366 Ry
     Harris-Foulkes estimate   =    -757.32814452 Ry
     estimated scf accuracy    <       0.00537534 Ry

     total magnetization       =     1.00 Bohr mag/cell
     absolute magnetization    =     1.39 Bohr mag/cell

     iteration # 10     ecut=    70.00 Ry     beta= 0.70
     Davidson diagonalization with overlap
     ethr =  2.55E-06,  avg # of iterations =  4.0

     negative rho (up, down):  3.380E-02 1.239E-02

     total cpu time spent up to now is     1262.6 secs

     total energy              =    -757.32805810 Ry
     Harris-Foulkes estimate   =    -757.32813372 Ry
     estimated scf accuracy    <       0.00490138 Ry

     total magnetization       =     1.00 Bohr mag/cell
     absolute magnetization    =     1.41 Bohr mag/cell

     iteration # 11     ecut=    70.00 Ry     beta= 0.70
     Davidson diagonalization with overlap
     ethr =  2.32E-06,  avg # of iterations =  2.0

     negative rho (up, down):  3.302E-02 1.980E-03

     total cpu time spent up to now is     1356.1 secs

     total energy              =    -757.32961105 Ry
     Harris-Foulkes estimate   =    -757.32836275 Ry
     estimated scf accuracy    <       0.00017780 Ry

     total magnetization       =     1.00 Bohr mag/cell
     absolute magnetization    =     1.43 Bohr mag/cell

     iteration # 12     ecut=    70.00 Ry     beta= 0.70
     Davidson diagonalization with overlap
     ethr =  8.43E-08,  avg # of iterations =  7.5

     negative rho (up, down):  3.353E-02 1.806E-03

     total cpu time spent up to now is     1482.6 secs

     total energy              =    -757.32968722 Ry
     Harris-Foulkes estimate   =    -757.32971137 Ry
     estimated scf accuracy    <       0.00008908 Ry

     total magnetization       =     1.00 Bohr mag/cell
     absolute magnetization    =     1.46 Bohr mag/cell

     iteration # 13     ecut=    70.00 Ry     beta= 0.70
     Davidson diagonalization with overlap
     ethr =  4.22E-08,  avg # of iterations =  3.0

     negative rho (up, down):  3.376E-02 1.689E-03

     total cpu time spent up to now is     1588.8 secs

     total energy              =    -757.32971108 Ry
     Harris-Foulkes estimate   =    -757.32971714 Ry
     estimated scf accuracy    <       0.00003752 Ry

     total magnetization       =     1.00 Bohr mag/cell
     absolute magnetization    =     1.48 Bohr mag/cell

     iteration # 14     ecut=    70.00 Ry     beta= 0.70
     Davidson diagonalization with overlap
     ethr =  1.78E-08,  avg # of iterations =  3.5

     negative rho (up, down):  3.392E-02 2.443E-03

     total cpu time spent up to now is     1695.0 secs

     total energy              =    -757.32971431 Ry
     Harris-Foulkes estimate   =    -757.32972464 Ry
     estimated scf accuracy    <       0.00008774 Ry

     total magnetization       =     1.00 Bohr mag/cell
     absolute magnetization    =     1.49 Bohr mag/cell

     iteration # 15     ecut=    70.00 Ry     beta= 0.70
     Davidson diagonalization with overlap
     ethr =  1.78E-08,  avg # of iterations =  3.0

     negative rho (up, down):  3.393E-02 1.899E-03

     total cpu time spent up to now is     1790.6 secs

     total energy              =    -757.32972432 Ry
     Harris-Foulkes estimate   =    -757.32972007 Ry
     estimated scf accuracy    <       0.00003922 Ry

     total magnetization       =     1.00 Bohr mag/cell
     absolute magnetization    =     1.50 Bohr mag/cell

     iteration # 16     ecut=    70.00 Ry     beta= 0.70
     Davidson diagonalization with overlap
     ethr =  1.78E-08,  avg # of iterations =  1.0

     negative rho (up, down):  3.399E-02 2.410E-03

     total cpu time spent up to now is     1884.2 secs

     total energy              =    -757.32972273 Ry
     Harris-Foulkes estimate   =    -757.32972590 Ry
     estimated scf accuracy    <       0.00003790 Ry

     total magnetization       =     1.00 Bohr mag/cell
     absolute magnetization    =     1.51 Bohr mag/cell

     iteration # 17     ecut=    70.00 Ry     beta= 0.70
     Davidson diagonalization with overlap
     ethr =  1.78E-08,  avg # of iterations =  1.0

     negative rho (up, down):  3.391E-02 1.855E-03

     total cpu time spent up to now is     1977.4 secs

     total energy              =    -757.32972795 Ry
     Harris-Foulkes estimate   =    -757.32972341 Ry
     estimated scf accuracy    <       0.00001356 Ry

     total magnetization       =     1.00 Bohr mag/cell
     absolute magnetization    =     1.51 Bohr mag/cell

     iteration # 18     ecut=    70.00 Ry     beta= 0.70
     Davidson diagonalization with overlap
     ethr =  6.43E-09,  avg # of iterations =  2.5

     negative rho (up, down):  3.395E-02 1.621E-03

     total cpu time spent up to now is     2074.9 secs

     total energy              =    -757.32972991 Ry
     Harris-Foulkes estimate   =    -757.32972994 Ry
     estimated scf accuracy    <       0.00004369 Ry

     total magnetization       =     1.00 Bohr mag/cell
     absolute magnetization    =     1.52 Bohr mag/cell

     iteration # 19     ecut=    70.00 Ry     beta= 0.70
     Davidson diagonalization with overlap
     ethr =  6.43E-09,  avg # of iterations =  1.5

     negative rho (up, down):  3.389E-02 2.498E-03

     total cpu time spent up to now is     2169.1 secs

     total energy              =    -757.32972739 Ry
     Harris-Foulkes estimate   =    -757.32973062 Ry
     estimated scf accuracy    <       0.00002602 Ry

     total magnetization       =     1.00 Bohr mag/cell
     absolute magnetization    =     1.53 Bohr mag/cell

     iteration # 20     ecut=    70.00 Ry     beta= 0.70
     Davidson diagonalization with overlap
     ethr =  6.43E-09,  avg # of iterations =  2.5

     negative rho (up, down):  3.395E-02 1.581E-03

     total cpu time spent up to now is     2263.2 secs

     total energy              =    -757.32973025 Ry
     Harris-Foulkes estimate   =    -757.32972813 Ry
     estimated scf accuracy    <       0.00002670 Ry

     total magnetization       =     1.00 Bohr mag/cell
     absolute magnetization    =     1.53 Bohr mag/cell

     iteration # 21     ecut=    70.00 Ry     beta= 0.70
     Davidson diagonalization with overlap
     ethr =  6.43E-09,  avg # of iterations =  2.5

     negative rho (up, down):  3.398E-02 1.644E-03

     total cpu time spent up to now is     2357.8 secs

     total energy              =    -757.32972797 Ry
     Harris-Foulkes estimate   =    -757.32973137 Ry
     estimated scf accuracy    <       0.00001683 Ry

     total magnetization       =     1.00 Bohr mag/cell
     absolute magnetization    =     1.54 Bohr mag/cell

     iteration # 22     ecut=    70.00 Ry     beta= 0.70
     Davidson diagonalization with overlap
     ethr =  6.43E-09,  avg # of iterations =  2.5

     negative rho (up, down):  3.397E-02 1.714E-03

     total cpu time spent up to now is     2457.8 secs

     total energy              =    -757.32973068 Ry
     Harris-Foulkes estimate   =    -757.32972997 Ry
     estimated scf accuracy    <       0.00000515 Ry

     total magnetization       =     1.00 Bohr mag/cell
     absolute magnetization    =     1.55 Bohr mag/cell

     iteration # 23     ecut=    70.00 Ry     beta= 0.70
     Davidson diagonalization with overlap
     ethr =  2.44E-09,  avg # of iterations =  1.5

     negative rho (up, down):  3.396E-02 1.617E-03

     total cpu time spent up to now is     2551.1 secs

     total energy              =    -757.32973125 Ry
     Harris-Foulkes estimate   =    -757.32973092 Ry
     estimated scf accuracy    <       0.00000410 Ry

     total magnetization       =     1.00 Bohr mag/cell
     absolute magnetization    =     1.55 Bohr mag/cell

     iteration # 24     ecut=    70.00 Ry     beta= 0.70
     Davidson diagonalization with overlap
     ethr =  1.94E-09,  avg # of iterations =  2.5

     negative rho (up, down):  3.394E-02 1.629E-03

     Magnetic moment per site:
     atom:    1    charge:    0.2115    magn:    0.0000    constr:    0.0000
     atom:    2    charge:    0.2111    magn:    0.0000    constr:    0.0000
     atom:    3    charge:    1.7177    magn:   -0.0069    constr:    0.0000
     atom:    4    charge:    1.7157    magn:    0.0093    constr:    0.0000
     atom:    5    charge:    1.7183    magn:   -0.0042    constr:    0.0000
     atom:    6    charge:    1.7141    magn:    0.0027    constr:    0.0000
     atom:    7    charge:    1.7183    magn:   -0.0042    constr:    0.0000
     atom:    8    charge:    1.7157    magn:    0.0096    constr:    0.0000
     atom:    9    charge:    1.7176    magn:   -0.0069    constr:    0.0000
     atom:   10    charge:    1.7145    magn:    0.0314    constr:    0.0000
     atom:   11    charge:    1.7186    magn:   -0.0090    constr:    0.0000
     atom:   12    charge:    1.7142    magn:    0.0303    constr:    0.0000
     atom:   13    charge:    1.7186    magn:   -0.0090    constr:    0.0000
     atom:   14    charge:    1.7146    magn:    0.0235    constr:    0.0000
     atom:   15    charge:    1.7169    magn:   -0.0079    constr:    0.0000
     atom:   16    charge:    1.7110    magn:    0.0296    constr:    0.0000
     atom:   17    charge:    1.7270    magn:   -0.0053    constr:    0.0000
     atom:   18    charge:    1.7109    magn:    0.0294    constr:    0.0000
     atom:   19    charge:    1.7169    magn:   -0.0079    constr:    0.0000
     atom:   20    charge:    1.7143    magn:    0.0227    constr:    0.0000
     atom:   21    charge:    1.7186    magn:   -0.0090    constr:    0.0000
     atom:   22    charge:    1.7145    magn:    0.0314    constr:    0.0000
     atom:   23    charge:    1.7176    magn:   -0.0069    constr:    0.0000
     atom:   24    charge:    1.7157    magn:    0.0095    constr:    0.0000
     atom:   25    charge:    1.7169    magn:   -0.0080    constr:    0.0000
     atom:   26    charge:    1.7113    magn:    0.0305    constr:    0.0000
     atom:   27    charge:    1.9149    magn:   -0.0003    constr:    0.0000
     atom:   28    charge:    7.8615    magn:    0.1020    constr:    0.0000
     atom:   29    charge:    1.9148    magn:   -0.0005    constr:    0.0000
     atom:   30    charge:    1.7109    magn:    0.0294    constr:    0.0000
     atom:   31    charge:    1.7169    magn:   -0.0079    constr:    0.0000
     atom:   32    charge:    1.7157    magn:    0.0096    constr:    0.0000
     atom:   33    charge:    1.7183    magn:   -0.0042    constr:    0.0000
     atom:   34    charge:    1.7138    magn:    0.0069    constr:    0.0000
     atom:   35    charge:    1.7183    magn:   -0.0043    constr:    0.0000
     atom:   36    charge:    1.7141    magn:    0.0027    constr:    0.0000
     atom:   37    charge:    1.7270    magn:   -0.0054    constr:    0.0000
     atom:   38    charge:    1.7113    magn:    0.0305    constr:    0.0000
     atom:   39    charge:    1.9149    magn:   -0.0003    constr:    0.0000
     atom:   40    charge:    1.7110    magn:    0.0296    constr:    0.0000
     atom:   41    charge:    1.7270    magn:   -0.0053    constr:    0.0000
     atom:   42    charge:    1.7141    magn:    0.0027    constr:    0.0000
     atom:   43    charge:    1.7183    magn:   -0.0042    constr:    0.0000
     atom:   44    charge:    1.7138    magn:    0.0068    constr:    0.0000
     atom:   45    charge:    1.7245    magn:   -0.0031    constr:    0.0000
     atom:   46    charge:    1.7138    magn:    0.0069    constr:    0.0000
     atom:   47    charge:    1.7183    magn:   -0.0043    constr:    0.0000
     atom:   48    charge:    1.7157    magn:    0.0095    constr:    0.0000
     atom:   49    charge:    1.7169    magn:   -0.0080    constr:    0.0000
     atom:   50    charge:    1.7146    magn:    0.0235    constr:    0.0000
     atom:   51    charge:    1.7169    magn:   -0.0079    constr:    0.0000
     atom:   52    charge:    1.7157    magn:    0.0093    constr:    0.0000

     total cpu time spent up to now is     2654.8 secs

     End of self-consistent calculation

 ------ SPIN UP ------------


          k = 0.0000 0.0000 0.0000 ( 87777 PWs)   bands (ev):

   -62.8567 -37.9414 -37.9400 -36.6246 -19.6448 -18.8024 -18.8013 -18.7319
   -18.6866 -18.6866 -18.2524 -16.9467 -16.9465 -16.9460 -16.8103 -16.8095
   -16.5267 -16.0936 -16.0936 -15.9994 -15.8450 -15.8450 -15.0939 -13.9060
   -13.9001 -13.8994 -13.8720 -13.8720 -13.1445 -12.9280 -12.9277 -12.9098
   -12.5165 -12.5163 -12.1232 -11.6564 -11.6563 -11.5316 -11.1504 -11.1503
   -10.1615  -9.3491  -9.3490  -9.2688  -9.1930  -9.1928  -9.1027  -9.0780
    -9.0780  -9.0619  -8.4741  -8.4739  -7.9053  -7.9051  -7.8702  -7.8109
    -7.6879  -7.2642  -7.2640  -6.9729  -6.9723  -6.9078  -6.7138  -6.7086
    -6.7079  -6.6711  -6.6024  -6.6024  -6.5562  -6.4452  -6.4449  -6.4008
    -6.3963  -6.3959  -6.3439  -6.3259  -5.2704  -5.2700  -5.1675  -5.1675
    -4.9560  -4.9558  -4.8449  -4.7567  -4.6295  -4.6185  -4.6177  -4.2537
    -3.9953  -3.9951  -3.7693  -3.7691  -3.6690  -3.6442  -3.5089  -3.5088
    -2.9095  -2.2702  -2.2701  -2.2362  -2.2358  -1.7584  -1.6911  -1.6909
    -0.5524  -0.2515  -0.2510   0.8346   1.0391   1.0714   1.0717   1.7815
     2.0407   2.0409   2.6029   2.8865   2.8868   2.9650   3.4182   3.4999
     3.5643   3.7300   3.7474   3.7846   3.8474   3.9924   3.9927

     occupation numbers 
     1.0000   1.0000   1.0000   1.0000   1.0000   1.0000   1.0000   1.0000
     1.0000   1.0000   1.0000   1.0000   1.0000   1.0000   1.0000   1.0000
     1.0000   1.0000   1.0000   1.0000   1.0000   1.0000   1.0000   1.0000
     1.0000   1.0000   1.0000   1.0000   1.0000   1.0000   1.0000   1.0000
     1.0000   1.0000   1.0000   1.0000   1.0000   1.0000   1.0000   1.0000
     1.0000   1.0000   1.0000   1.0000   1.0000   1.0000   1.0000   1.0000
     1.0000   1.0000   1.0000   1.0000   1.0000   1.0000   1.0000   1.0000
     1.0000   1.0000   1.0000   1.0000   1.0000   1.0000   1.0000   1.0000
     1.0000   1.0000   1.0000   1.0000   1.0000   1.0000   1.0000   1.0000
     1.0000   1.0000   1.0000   1.0000   1.0000   1.0000   1.0000   1.0000
     1.0000   1.0000   1.0000   1.0000   1.0000   1.0000   1.0000   1.0000
     1.0000   1.0000   1.0000   1.0000   1.0000   1.0000   1.0000   1.0000
     1.0000   1.0000   1.0000   1.0000   1.0000   1.0000   1.0000   1.0000
     1.0000   0.5134   0.4866   0.0000   0.0000   0.0000   0.0000   0.0000
     0.0000   0.0000   0.0000   0.0000   0.0000   0.0000   0.0000   0.0000
     0.0000   0.0000   0.0000   0.0000   0.0000   0.0000   0.0000

 ------ SPIN DOWN ----------


          k = 0.0000 0.0000 0.0000 ( 87777 PWs)   bands (ev):

   -62.6603 -37.7813 -37.7763 -36.3557 -19.6229 -18.7808 -18.7794 -18.7116
   -18.6700 -18.6700 -18.2203 -16.9304 -16.9279 -16.9271 -16.7820 -16.7810
   -16.5125 -16.0665 -16.0663 -15.9836 -15.8239 -15.8238 -15.0791 -13.8690
   -13.8688 -13.8684 -13.8591 -13.8580 -13.1478 -12.9173 -12.9170 -12.8943
   -12.5085 -12.5082 -12.1048 -11.6386 -11.6385 -11.5184 -11.1379 -11.1378
   -10.1469  -9.3321  -9.3319  -9.2558  -9.1756  -9.1753  -9.0946  -9.0639
    -9.0638  -9.0526  -8.4673  -8.4671  -7.8938  -7.8935  -7.8632  -7.7585
    -7.6794  -7.2554  -7.2552  -6.8952  -6.8941  -6.8873  -6.6768  -6.6753
    -6.6709  -6.6600  -6.5911  -6.5910  -6.5465  -6.4356  -6.4352  -6.3951
    -6.3897  -6.3894  -6.3357  -6.2486  -5.2621  -5.2617  -5.0830  -5.0816
    -4.9461  -4.9459  -4.8390  -4.7507  -4.5875  -4.5675  -4.5663  -4.2160
    -3.9443  -3.9435  -3.6951  -3.6947  -3.6226  -3.6141  -3.5023  -3.5021
    -2.8763  -2.2031  -2.2020  -2.1706  -2.1697  -1.6757  -1.6755  -1.6636
    -0.5471  -0.0250  -0.0212   0.9108   1.0923   1.0927   1.1164   1.8535
     2.1106   2.1116   2.6105   2.9577   2.9583   3.0060   3.4436   3.5062
     3.5709   3.7326   3.7491   3.7890   3.8860   4.0634   4.0646

     occupation numbers 
     1.0000   1.0000   1.0000   1.0000   1.0000   1.0000   1.0000   1.0000
     1.0000   1.0000   1.0000   1.0000   1.0000   1.0000   1.0000   1.0000
     1.0000   1.0000   1.0000   1.0000   1.0000   1.0000   1.0000   1.0000
     1.0000   1.0000   1.0000   1.0000   1.0000   1.0000   1.0000   1.0000
     1.0000   1.0000   1.0000   1.0000   1.0000   1.0000   1.0000   1.0000
     1.0000   1.0000   1.0000   1.0000   1.0000   1.0000   1.0000   1.0000
     1.0000   1.0000   1.0000   1.0000   1.0000   1.0000   1.0000   1.0000
     1.0000   1.0000   1.0000   1.0000   1.0000   1.0000   1.0000   1.0000
     1.0000   1.0000   1.0000   1.0000   1.0000   1.0000   1.0000   1.0000
     1.0000   1.0000   1.0000   1.0000   1.0000   1.0000   1.0000   1.0000
     1.0000   1.0000   1.0000   1.0000   1.0000   1.0000   1.0000   1.0000
     1.0000   1.0000   1.0000   1.0000   1.0000   1.0000   1.0000   1.0000
     1.0000   1.0000   1.0000   1.0000   1.0000   1.0000   1.0000   1.0000
     1.0000   0.0000   0.0000   0.0000   0.0000   0.0000   0.0000   0.0000
     0.0000   0.0000   0.0000   0.0000   0.0000   0.0000   0.0000   0.0000
     0.0000   0.0000   0.0000   0.0000   0.0000   0.0000   0.0000

     the Fermi energy is    -0.2494 ev

!    total energy              =    -757.32973252 Ry
     Harris-Foulkes estimate   =    -757.32973205 Ry
     estimated scf accuracy    <       0.00000063 Ry

     The total energy is the sum of the following terms:

     one-electron contribution =   -2567.22426556 Ry
     hartree contribution      =    1330.37496163 Ry
     xc contribution           =    -252.66414486 Ry
     ewald contribution        =     732.18404421 Ry
     smearing contrib. (-TS)   =      -0.00032794 Ry

     total magnetization       =     1.00 Bohr mag/cell
     absolute magnetization    =     1.55 Bohr mag/cell

     convergence has been achieved in  24 iterations

     Writing output data file distance-4.5.save/

     init_run     :     71.78s CPU     73.18s WALL (       1 calls)
     electrons    :   2535.09s CPU   2580.52s WALL (       1 calls)

     Called by init_run:
     wfcinit      :     42.85s CPU     43.09s WALL (       1 calls)
     wfcinit:atom :      0.05s CPU      0.09s WALL (       2 calls)
     wfcinit:wfcr :     42.41s CPU     42.56s WALL (       2 calls)
     potinit      :     12.10s CPU     12.54s WALL (       1 calls)
     hinit0       :      8.00s CPU      8.01s WALL (       1 calls)

     Called by electrons:
     c_bands      :   1650.92s CPU   1660.37s WALL (      24 calls)
     sum_band     :    512.44s CPU    526.86s WALL (      24 calls)
     v_of_rho     :    185.52s CPU    194.41s WALL (      25 calls)
     v_h          :      1.97s CPU      2.01s WALL (      25 calls)
     v_xc         :    183.56s CPU    192.39s WALL (      25 calls)
     newd         :    184.48s CPU    197.80s WALL (      25 calls)
     mix_rho      :     10.80s CPU     10.98s WALL (      24 calls)

     Called by c_bands:
     init_us_2    :      4.66s CPU      4.70s WALL (      98 calls)
     cegterg      :   1639.23s CPU   1648.61s WALL (      48 calls)

     Called by sum_band:
     sum_band:bec :      0.04s CPU      0.04s WALL (      48 calls)
     addusdens    :    315.26s CPU    328.38s WALL (      24 calls)

     Called by *egterg:
     h_psi        :    861.80s CPU    868.42s WALL (     222 calls)
     s_psi        :    284.46s CPU    284.58s WALL (     222 calls)
     g_psi        :      0.98s CPU      0.98s WALL (     172 calls)
     cdiaghg      :     17.72s CPU     17.72s WALL (     220 calls)
     cegterg:over :    206.66s CPU    206.74s WALL (     172 calls)
     cegterg:upda :    131.36s CPU    132.23s WALL (     172 calls)
     cegterg:last :     90.21s CPU     90.24s WALL (      49 calls)

     Called by h_psi:
     h_psi:pot    :    860.84s CPU    866.38s WALL (     222 calls)
     h_psi:calbec :    286.93s CPU    287.08s WALL (     222 calls)
     vloc_psi     :    289.65s CPU    294.97s WALL (     222 calls)
     add_vuspsi   :    284.26s CPU    284.32s WALL (     222 calls)

     General routines
     calbec       :    403.99s CPU    404.19s WALL (     270 calls)
     fft          :    103.85s CPU    107.40s WALL (    1869 calls)
     ffts         :      1.98s CPU      2.03s WALL (      98 calls)
     fftw         :    303.13s CPU    308.72s WALL (   35974 calls)
     interpolate  :      4.44s CPU      4.58s WALL (      50 calls)

     Parallel routines
     fft_scatt_xy :     75.03s CPU     76.04s WALL (   37941 calls)
     fft_scatt_yz :    132.39s CPU    138.92s WALL (   37941 calls)

     PWSCF        :  43m28.29s CPU  44m15.55s WALL


   This run was terminated on:   2:35:17  23Aug2022            

=------------------------------------------------------------------------------=
   JOB DONE.
=------------------------------------------------------------------------------=
