
     Program PWSCF v.6.4.1 starts on 23Aug2022 at  4:14:26 

     This program is part of the open-source Quantum ESPRESSO suite
     for quantum simulation of materials; please cite
         "P. Giannozzi et al., J. Phys.:Condens. Matter 21 395502 (2009);
         "P. Giannozzi et al., J. Phys.:Condens. Matter 29 465901 (2017);
          URL http://www.quantum-espresso.org", 
     in publications or presentations arising from this work. More details at
     http://www.quantum-espresso.org/quote

     Parallel version (MPI), running on     6 processors

     MPI processes distributed on     1 nodes
     R & G space division:  proc/nbgrp/npool/nimage =       6
     Reading input from distance-3.0.in

     Current dimensions of program PWSCF are:
     Max number of different atomic species (ntypx) = 10
     Max number of k-points (npk) =  40000
     Max angular momentum in pseudopotentials (lmaxx) =  3

     IMPORTANT: XC functional enforced from input :
     Exchange-correlation      = RVV10 ( 1  4 13  4 3 0)
     Any further DFT definition will be discarded
     Please, verify this is what you really want

               file H.pbe-rrkjus.UPF: wavefunction(s)  1S renormalized
               file V.pbe-spnl-rrkjus_psl.1.0.0.UPF: wavefunction(s)  3P 3D renormalized

     Subspace diagonalization in iterative solution of the eigenvalue problem:
     a serial algorithm will be used


     Parallelization info
     --------------------
     sticks:   dense  smooth     PW     G-vecs:    dense   smooth      PW
     Min        3051    1746    432               270999   117096   14629
     Max        3053    1747    437               271001   117099   14630
     Sum       18313   10477   2611              1626001   702581   87777



     bravais-lattice index     =            4
     lattice parameter (alat)  =      23.2937  a.u.
     unit-cell volume          =    8879.8548 (a.u.)^3
     number of atoms/cell      =           52
     number of atomic types    =            3
     number of electrons       =       211.00
     number of Kohn-Sham states=          127
     kinetic-energy cutoff     =      70.0000  Ry
     charge density cutoff     =     490.0000  Ry
     convergence threshold     =      1.0E-06
     mixing beta               =       0.7000
     number of iterations used =            8  plain     mixing
     Exchange-correlation      = RVV10 ( 1  4 13  4 3 0)

     celldm(1)=  23.293684  celldm(2)=   0.000000  celldm(3)=   0.811261
     celldm(4)=   0.000000  celldm(5)=   0.000000  celldm(6)=   0.000000

     crystal axes: (cart. coord. in units of alat)
               a(1) = (   1.000000   0.000000   0.000000 )  
               a(2) = (  -0.500000   0.866025   0.000000 )  
               a(3) = (   0.000000   0.000000   0.811261 )  

     reciprocal axes: (cart. coord. in units 2 pi/alat)
               b(1) = (  1.000000  0.577350 -0.000000 )  
               b(2) = (  0.000000  1.154701  0.000000 )  
               b(3) = (  0.000000 -0.000000  1.232649 )  


     PseudoPot. # 1 for H  read from file:
     /home/cristian/Escritorio/Proyecto_Grafeno/pseudopotenciales/H.pbe-rrkjus.UPF
     MD5 check sum: 7cc9d459525c9a0585f487a71c3c9563
     Pseudo is Ultrasoft, Zval =  1.0
     Generated by new atomic code, or converted to UPF format
     Using radial grid of 1061 points,  2 beta functions with: 
                l(1) =   0
                l(2) =   0
     Q(r) pseudized with 0 coefficients 


     PseudoPot. # 2 for C  read from file:
     /home/cristian/Escritorio/Proyecto_Grafeno/pseudopotenciales/C.pbe-n-rrkjus_psl.1.0.0.UPF
     MD5 check sum: 1fdd950c42eb37d8afe3dd2f8d12311e
     Pseudo is Ultrasoft + core correction, Zval =  4.0
     Generated using "atomic" code by A. Dal Corso v.6.3MaX
     Using radial grid of 1073 points,  4 beta functions with: 
                l(1) =   0
                l(2) =   0
                l(3) =   1
                l(4) =   1
     Q(r) pseudized with 0 coefficients 


     PseudoPot. # 3 for V  read from file:
     /home/cristian/Escritorio/Proyecto_Grafeno/pseudopotenciales/V.pbe-spnl-rrkjus_psl.1.0.0.UPF
     MD5 check sum: 79b3eb63147daf0b665d9f1bcc691206
     Pseudo is Ultrasoft + core correction, Zval = 13.0
     Generated using "atomic" code by A. Dal Corso v.6.2.2
     Using radial grid of 1181 points,  6 beta functions with: 
                l(1) =   0
                l(2) =   0
                l(3) =   1
                l(4) =   1
                l(5) =   2
                l(6) =   2
     Q(r) pseudized with 0 coefficients 


     vdW kernel table read from file rVV10_kernel_table
     MD5 check sum: b8e2538accc0c0b3206b45ba4daaba6c

     atomic species   valence    mass     pseudopotential
        H              1.00     1.00794     H ( 1.00)
        C              4.00    12.01070     C ( 1.00)
        V             13.00    50.94150     V ( 1.00)

     Starting magnetic structure 
     atomic species   magnetization
        H            0.500
        C            0.300
        V            0.800

      2 Sym. Ops. (no inversion) found


                                    s                        frac. trans.

      isym =  1     identity                                     

 cryst.   s( 1) = (     1          0          0      )
                  (     0          1          0      )
                  (     0          0          1      )

 cart.    s( 1) = (  1.0000000  0.0000000  0.0000000 )
                  (  0.0000000  1.0000000  0.0000000 )
                  (  0.0000000  0.0000000  1.0000000 )


      isym =  2     inv. 180 deg rotation - cryst. axis [1,1,0]  

 cryst.   s( 2) = (     0         -1          0      )
                  (    -1          0          0      )
                  (     0          0          1      )

 cart.    s( 2) = (  0.5000000 -0.8660254  0.0000000 )
                  ( -0.8660254 -0.5000000  0.0000000 )
                  (  0.0000000  0.0000000  1.0000000 )


     point group C_s (m)    
     there are  2 classes
     the character table:

       E     s    
A'     1.00  1.00
A''    1.00 -1.00

     the symmetry operations in each class and the name of the first element:

     E        1
          identity                                               
     s        2
          inv. 180 deg rotation - cryst. axis [1,1,0]            

   Cartesian axes

     site n.     atom                  positions (alat units)
         1           H   tau(   1) = (   0.3000000   0.4041452   0.2433783  )
         2           H   tau(   2) = (   0.3000000   0.4041452   0.3043910  )
         3           C   tau(   3) = (   0.0000000   0.0000000   0.0000000  )
         4           C   tau(   4) = (   0.0000000   0.1154701   0.0000000  )
         5           C   tau(   5) = (  -0.1000000   0.1732051   0.0000000  )
         6           C   tau(   6) = (  -0.1000000   0.2886751   0.0000000  )
         7           C   tau(   7) = (  -0.2000000   0.3464102   0.0000000  )
         8           C   tau(   8) = (  -0.2000000   0.4618802   0.0000000  )
         9           C   tau(   9) = (  -0.3000000   0.5196152   0.0000000  )
        10           C   tau(  10) = (  -0.3000000   0.6350853   0.0000000  )
        11           C   tau(  11) = (  -0.4000000   0.6928203   0.0000000  )
        12           C   tau(  12) = (  -0.4000000   0.8082904   0.0000000  )
        13           C   tau(  13) = (   0.2000000   0.0000000   0.0000000  )
        14           C   tau(  14) = (   0.2000000   0.1154701   0.0000000  )
        15           C   tau(  15) = (   0.1000000   0.1732051   0.0000000  )
        16           C   tau(  16) = (   0.1000000   0.2886751   0.0000000  )
        17           C   tau(  17) = (   0.0000000   0.3464102   0.0000000  )
        18           C   tau(  18) = (   0.0000000   0.4618802   0.0000000  )
        19           C   tau(  19) = (  -0.1000000   0.5196152   0.0000000  )
        20           C   tau(  20) = (  -0.1000000   0.6350853   0.0000000  )
        21           C   tau(  21) = (  -0.2000000   0.6928203   0.0000000  )
        22           C   tau(  22) = (  -0.2000000   0.8082904   0.0000000  )
        23           C   tau(  23) = (   0.4000000   0.0000000   0.0000000  )
        24           C   tau(  24) = (   0.4000000   0.1154701   0.0000000  )
        25           C   tau(  25) = (   0.3000000   0.1732051   0.0000000  )
        26           C   tau(  26) = (   0.3000000   0.2886751   0.0000000  )
        27           C   tau(  27) = (   0.2000000   0.3464102   0.0000000  )
        28           V   tau(  28) = (   0.2000000   0.4618802   0.0000000  )
        29           C   tau(  29) = (   0.1000000   0.5196152   0.0000000  )
        30           C   tau(  30) = (   0.1000000   0.6350853   0.0000000  )
        31           C   tau(  31) = (   0.0000000   0.6928203   0.0000000  )
        32           C   tau(  32) = (   0.0000000   0.8082904   0.0000000  )
        33           C   tau(  33) = (   0.6000000   0.0000000   0.0000000  )
        34           C   tau(  34) = (   0.6000000   0.1154701   0.0000000  )
        35           C   tau(  35) = (   0.5000000   0.1732051   0.0000000  )
        36           C   tau(  36) = (   0.5000000   0.2886751   0.0000000  )
        37           C   tau(  37) = (   0.4000000   0.3464102   0.0000000  )
        38           C   tau(  38) = (   0.4000000   0.4618802   0.0000000  )
        39           C   tau(  39) = (   0.3000000   0.5196152   0.0000000  )
        40           C   tau(  40) = (   0.3000000   0.6350853   0.0000000  )
        41           C   tau(  41) = (   0.2000000   0.6928203   0.0000000  )
        42           C   tau(  42) = (   0.2000000   0.8082904   0.0000000  )
        43           C   tau(  43) = (   0.8000000   0.0000000   0.0000000  )
        44           C   tau(  44) = (   0.8000000   0.1154701   0.0000000  )
        45           C   tau(  45) = (   0.7000000   0.1732051   0.0000000  )
        46           C   tau(  46) = (   0.7000000   0.2886751   0.0000000  )
        47           C   tau(  47) = (   0.6000000   0.3464102   0.0000000  )
        48           C   tau(  48) = (   0.6000000   0.4618802   0.0000000  )
        49           C   tau(  49) = (   0.5000000   0.5196152   0.0000000  )
        50           C   tau(  50) = (   0.5000000   0.6350853   0.0000000  )
        51           C   tau(  51) = (   0.4000000   0.6928203   0.0000000  )
        52           C   tau(  52) = (   0.4000000   0.8082904   0.0000000  )

   Crystallographic axes

     site n.     atom                  positions (cryst. coord.)
         1           H   tau(   1) = (  0.5333333  0.4666667  0.3000000  )
         2           H   tau(   2) = (  0.5333333  0.4666667  0.3752072  )
         3           C   tau(   3) = (  0.0000000  0.0000000  0.0000000  )
         4           C   tau(   4) = (  0.0666667  0.1333333  0.0000000  )
         5           C   tau(   5) = (  0.0000000  0.2000000  0.0000000  )
         6           C   tau(   6) = (  0.0666667  0.3333333  0.0000000  )
         7           C   tau(   7) = (  0.0000000  0.4000000  0.0000000  )
         8           C   tau(   8) = (  0.0666667  0.5333333  0.0000000  )
         9           C   tau(   9) = (  0.0000000  0.6000000  0.0000000  )
        10           C   tau(  10) = (  0.0666667  0.7333333  0.0000000  )
        11           C   tau(  11) = (  0.0000000  0.8000000  0.0000000  )
        12           C   tau(  12) = (  0.0666667  0.9333333  0.0000000  )
        13           C   tau(  13) = (  0.2000000  0.0000000  0.0000000  )
        14           C   tau(  14) = (  0.2666667  0.1333333  0.0000000  )
        15           C   tau(  15) = (  0.2000000  0.2000000  0.0000000  )
        16           C   tau(  16) = (  0.2666667  0.3333333  0.0000000  )
        17           C   tau(  17) = (  0.2000000  0.4000000  0.0000000  )
        18           C   tau(  18) = (  0.2666667  0.5333333  0.0000000  )
        19           C   tau(  19) = (  0.2000000  0.6000000  0.0000000  )
        20           C   tau(  20) = (  0.2666667  0.7333333  0.0000000  )
        21           C   tau(  21) = (  0.2000000  0.8000000  0.0000000  )
        22           C   tau(  22) = (  0.2666667  0.9333333  0.0000000  )
        23           C   tau(  23) = (  0.4000000  0.0000000  0.0000000  )
        24           C   tau(  24) = (  0.4666667  0.1333333  0.0000000  )
        25           C   tau(  25) = (  0.4000000  0.2000000  0.0000000  )
        26           C   tau(  26) = (  0.4666667  0.3333333  0.0000000  )
        27           C   tau(  27) = (  0.4000000  0.4000000  0.0000000  )
        28           V   tau(  28) = (  0.4666667  0.5333333  0.0000000  )
        29           C   tau(  29) = (  0.4000000  0.6000000  0.0000000  )
        30           C   tau(  30) = (  0.4666667  0.7333333  0.0000000  )
        31           C   tau(  31) = (  0.4000000  0.8000000  0.0000000  )
        32           C   tau(  32) = (  0.4666667  0.9333333  0.0000000  )
        33           C   tau(  33) = (  0.6000000  0.0000000  0.0000000  )
        34           C   tau(  34) = (  0.6666667  0.1333333  0.0000000  )
        35           C   tau(  35) = (  0.6000000  0.2000000  0.0000000  )
        36           C   tau(  36) = (  0.6666667  0.3333333  0.0000000  )
        37           C   tau(  37) = (  0.6000000  0.4000000  0.0000000  )
        38           C   tau(  38) = (  0.6666667  0.5333333  0.0000000  )
        39           C   tau(  39) = (  0.6000000  0.6000000  0.0000000  )
        40           C   tau(  40) = (  0.6666667  0.7333333  0.0000000  )
        41           C   tau(  41) = (  0.6000000  0.8000000  0.0000000  )
        42           C   tau(  42) = (  0.6666667  0.9333333  0.0000000  )
        43           C   tau(  43) = (  0.8000000  0.0000000  0.0000000  )
        44           C   tau(  44) = (  0.8666667  0.1333333  0.0000000  )
        45           C   tau(  45) = (  0.8000000  0.2000000  0.0000000  )
        46           C   tau(  46) = (  0.8666667  0.3333333  0.0000000  )
        47           C   tau(  47) = (  0.8000000  0.4000000  0.0000000  )
        48           C   tau(  48) = (  0.8666667  0.5333333  0.0000000  )
        49           C   tau(  49) = (  0.8000000  0.6000000  0.0000000  )
        50           C   tau(  50) = (  0.8666667  0.7333333  0.0000000  )
        51           C   tau(  51) = (  0.8000000  0.8000000  0.0000000  )
        52           C   tau(  52) = (  0.8666667  0.9333333  0.0000000  )

     number of k points=     1  Marzari-Vanderbilt smearing, width (Ry)=  0.0010
                       cart. coord. in units 2pi/alat
        k(    1) = (   0.0000000   0.0000000   0.0000000), wk =   1.0000000

                       cryst. coord.
        k(    1) = (   0.0000000   0.0000000   0.0000000), wk =   1.0000000

     Dense  grid:  1626001 G-vectors     FFT dimensions: ( 180, 180, 135)

     Smooth grid:   702581 G-vectors     FFT dimensions: ( 125, 125, 108)

     Dynamical RAM for                 wfc:      28.36 MB

     Dynamical RAM for     wfc (w. buffer):      85.09 MB

     Dynamical RAM for           str. fact:      12.41 MB

     Dynamical RAM for           local pot:       0.00 MB

     Dynamical RAM for          nlocal pot:      92.46 MB

     Dynamical RAM for                qrad:      19.73 MB

     Dynamical RAM for          rho,v,vnew:      58.92 MB

     Dynamical RAM for               rhoin:      19.64 MB

     Dynamical RAM for            rho*nmix:     132.32 MB

     Dynamical RAM for           G-vectors:      16.40 MB

     Dynamical RAM for          h,s,v(r/c):      11.81 MB

     Dynamical RAM for          <psi|beta>:       0.80 MB

     Dynamical RAM for                 psi:     113.46 MB

     Dynamical RAM for                hpsi:     113.46 MB

     Dynamical RAM for                spsi:     113.46 MB

     Dynamical RAM for      wfcinit/wfcrot:      93.90 MB

     Dynamical RAM for           addusdens:     975.89 MB

     Estimated static dynamical RAM per process >     487.63 MB

     Estimated max dynamical RAM per process >       1.43 GB

     Estimated total dynamical RAM >       8.58 GB
     Generating pointlists ...
     new r_m :   0.0252 (alat units)  0.5862 (a.u.) for type    1
     new r_m :   0.0476 (alat units)  1.1095 (a.u.) for type    2
     new r_m :   0.0476 (alat units)  1.1095 (a.u.) for type    3

     Check: negative core charge=   -0.000002

     Initial potential from superposition of free atoms

     starting charge  210.80465, renormalised to  211.00000

     negative rho (up, down):  1.147E-04 1.460E-02


---------------------------------------------------------------------------------
Carrying out rVV10 run using the following parameters:
Nqs =      20    Nr_points =    1024   r_max =   100.000
b_value =  6.30000    beta =  0.00901
     q_mesh =  0.00010000  0.00030000  0.00058939  0.00100810
               0.00161396  0.00249058  0.00375900  0.00559430
               0.00824984  0.01209221  0.01765183  0.02569619
               0.03733578  0.05417739  0.07854596  0.11380545
               0.16482331  0.23864234  0.34545298  0.50000000

Gradients computed in Reciprocal space

---------------------------------------------------------------------------------


     Starting wfcs are  208 randomized atomic wfcs

     total cpu time spent up to now is       77.7 secs

     Self-consistent Calculation

     iteration #  1     ecut=    70.00 Ry     beta= 0.70
     Davidson diagonalization with overlap
     ethr =  1.00E-02,  avg # of iterations =  5.0

     negative rho (up, down):  2.306E-04 1.189E-02

     total cpu time spent up to now is      208.9 secs

     total energy              =    -753.43970599 Ry
     Harris-Foulkes estimate   =    -756.87809005 Ry
     estimated scf accuracy    <      11.22096057 Ry

     total magnetization       =     5.00 Bohr mag/cell
     absolute magnetization    =     6.04 Bohr mag/cell

     iteration #  2     ecut=    70.00 Ry     beta= 0.70
     Davidson diagonalization with overlap
     ethr =  5.32E-03,  avg # of iterations =  6.5

     negative rho (up, down):  3.292E-03 1.727E-01

     total cpu time spent up to now is      329.7 secs

     total energy              =    -747.10614199 Ry
     Harris-Foulkes estimate   =    -766.32142435 Ry
     estimated scf accuracy    <      66.42026478 Ry

     total magnetization       =     3.00 Bohr mag/cell
     absolute magnetization    =     3.35 Bohr mag/cell

     iteration #  3     ecut=    70.00 Ry     beta= 0.70
     Davidson diagonalization with overlap
     ethr =  5.32E-03,  avg # of iterations =  5.0

     negative rho (up, down):  1.395E-03 1.855E-02

     total cpu time spent up to now is      503.5 secs

     total energy              =    -755.75674240 Ry
     Harris-Foulkes estimate   =    -758.24764779 Ry
     estimated scf accuracy    <      11.78264841 Ry

     total magnetization       =     5.00 Bohr mag/cell
     absolute magnetization    =     5.79 Bohr mag/cell

     iteration #  4     ecut=    70.00 Ry     beta= 0.70
     Davidson diagonalization with overlap
     ethr =  5.32E-03,  avg # of iterations =  2.5

     negative rho (up, down):  4.628E-02 2.075E-02

     total cpu time spent up to now is      597.2 secs

     total energy              =    -757.05835329 Ry
     Harris-Foulkes estimate   =    -757.50163559 Ry
     estimated scf accuracy    <       1.31696485 Ry

     total magnetization       =     1.00 Bohr mag/cell
     absolute magnetization    =     1.70 Bohr mag/cell

     iteration #  5     ecut=    70.00 Ry     beta= 0.70
     Davidson diagonalization with overlap
     ethr =  6.24E-04,  avg # of iterations =  7.0

     negative rho (up, down):  5.216E-02 1.751E-02

     total cpu time spent up to now is      712.2 secs

     total energy              =    -757.21785163 Ry
     Harris-Foulkes estimate   =    -757.32110471 Ry
     estimated scf accuracy    <       0.32942650 Ry

     total magnetization       =     1.00 Bohr mag/cell
     absolute magnetization    =     1.50 Bohr mag/cell

     iteration #  6     ecut=    70.00 Ry     beta= 0.70
     Davidson diagonalization with overlap
     ethr =  1.56E-04,  avg # of iterations =  5.5

     negative rho (up, down):  2.880E-02 1.772E-02

     total cpu time spent up to now is      821.9 secs

     total energy              =    -757.29205428 Ry
     Harris-Foulkes estimate   =    -757.32461221 Ry
     estimated scf accuracy    <       0.21727097 Ry

     total magnetization       =     1.00 Bohr mag/cell
     absolute magnetization    =     1.44 Bohr mag/cell

     iteration #  7     ecut=    70.00 Ry     beta= 0.70
     Davidson diagonalization with overlap
     ethr =  1.03E-04,  avg # of iterations =  3.0

     negative rho (up, down):  3.087E-02 1.470E-02

     total cpu time spent up to now is      919.0 secs

     total energy              =    -757.32031713 Ry
     Harris-Foulkes estimate   =    -757.32439512 Ry
     estimated scf accuracy    <       0.03258207 Ry

     total magnetization       =     1.00 Bohr mag/cell
     absolute magnetization    =     1.36 Bohr mag/cell

     iteration #  8     ecut=    70.00 Ry     beta= 0.70
     Davidson diagonalization with overlap
     ethr =  1.54E-05,  avg # of iterations =  5.5

     negative rho (up, down):  3.084E-02 2.401E-02

     total cpu time spent up to now is     1038.3 secs

     total energy              =    -757.32642740 Ry
     Harris-Foulkes estimate   =    -757.33238476 Ry
     estimated scf accuracy    <       0.03738031 Ry

     total magnetization       =     1.00 Bohr mag/cell
     absolute magnetization    =     1.38 Bohr mag/cell

     iteration #  9     ecut=    70.00 Ry     beta= 0.70
     Davidson diagonalization with overlap
     ethr =  1.54E-05,  avg # of iterations =  3.0

     negative rho (up, down):  3.327E-02 1.914E-02

     total cpu time spent up to now is     1137.1 secs

     total energy              =    -757.33042456 Ry
     Harris-Foulkes estimate   =    -757.33103154 Ry
     estimated scf accuracy    <       0.00527231 Ry

     total magnetization       =     1.00 Bohr mag/cell
     absolute magnetization    =     1.39 Bohr mag/cell

     iteration # 10     ecut=    70.00 Ry     beta= 0.70
     Davidson diagonalization with overlap
     ethr =  2.50E-06,  avg # of iterations =  4.5

     negative rho (up, down):  3.434E-02 1.423E-02

     total cpu time spent up to now is     1238.3 secs

     total energy              =    -757.33121103 Ry
     Harris-Foulkes estimate   =    -757.33146561 Ry
     estimated scf accuracy    <       0.00446646 Ry

     total magnetization       =     1.00 Bohr mag/cell
     absolute magnetization    =     1.41 Bohr mag/cell

     iteration # 11     ecut=    70.00 Ry     beta= 0.70
     Davidson diagonalization with overlap
     ethr =  2.12E-06,  avg # of iterations =  2.5

     negative rho (up, down):  3.323E-02 5.627E-03

     total cpu time spent up to now is     1333.6 secs

     total energy              =    -757.33256486 Ry
     Harris-Foulkes estimate   =    -757.33149367 Ry
     estimated scf accuracy    <       0.00016262 Ry

     total magnetization       =     1.00 Bohr mag/cell
     absolute magnetization    =     1.42 Bohr mag/cell

     iteration # 12     ecut=    70.00 Ry     beta= 0.70
     Davidson diagonalization with overlap
     ethr =  7.71E-08,  avg # of iterations =  7.5

     negative rho (up, down):  3.374E-02 3.711E-03

     total cpu time spent up to now is     1458.4 secs

     total energy              =    -757.33266886 Ry
     Harris-Foulkes estimate   =    -757.33266149 Ry
     estimated scf accuracy    <       0.00016827 Ry

     total magnetization       =     1.00 Bohr mag/cell
     absolute magnetization    =     1.46 Bohr mag/cell

     iteration # 13     ecut=    70.00 Ry     beta= 0.70
     Davidson diagonalization with overlap
     ethr =  7.71E-08,  avg # of iterations =  3.0

     negative rho (up, down):  3.399E-02 3.434E-03

     total cpu time spent up to now is     1559.0 secs

     total energy              =    -757.33269883 Ry
     Harris-Foulkes estimate   =    -757.33270120 Ry
     estimated scf accuracy    <       0.00002048 Ry

     total magnetization       =     1.00 Bohr mag/cell
     absolute magnetization    =     1.47 Bohr mag/cell

     iteration # 14     ecut=    70.00 Ry     beta= 0.70
     Davidson diagonalization with overlap
     ethr =  9.71E-09,  avg # of iterations =  3.0

     negative rho (up, down):  3.409E-02 3.704E-03

     total cpu time spent up to now is     1670.2 secs

     total energy              =    -757.33270435 Ry
     Harris-Foulkes estimate   =    -757.33270565 Ry
     estimated scf accuracy    <       0.00001326 Ry

     total magnetization       =     1.00 Bohr mag/cell
     absolute magnetization    =     1.49 Bohr mag/cell

     iteration # 15     ecut=    70.00 Ry     beta= 0.70
     Davidson diagonalization with overlap
     ethr =  6.29E-09,  avg # of iterations =  3.0

     negative rho (up, down):  3.409E-02 2.293E-03

     total cpu time spent up to now is     1767.4 secs

     total energy              =    -757.33270990 Ry
     Harris-Foulkes estimate   =    -757.33270660 Ry
     estimated scf accuracy    <       0.00001339 Ry

     total magnetization       =     1.00 Bohr mag/cell
     absolute magnetization    =     1.50 Bohr mag/cell

     iteration # 16     ecut=    70.00 Ry     beta= 0.70
     Davidson diagonalization with overlap
     ethr =  6.29E-09,  avg # of iterations =  1.5

     negative rho (up, down):  3.415E-02 3.163E-03

     total cpu time spent up to now is     1860.7 secs

     total energy              =    -757.33270765 Ry
     Harris-Foulkes estimate   =    -757.33271103 Ry
     estimated scf accuracy    <       0.00001955 Ry

     total magnetization       =     1.00 Bohr mag/cell
     absolute magnetization    =     1.51 Bohr mag/cell

     iteration # 17     ecut=    70.00 Ry     beta= 0.70
     Davidson diagonalization with overlap
     ethr =  6.29E-09,  avg # of iterations =  2.0

     negative rho (up, down):  3.410E-02 1.678E-03

     total cpu time spent up to now is     1955.4 secs

     total energy              =    -757.33271195 Ry
     Harris-Foulkes estimate   =    -757.33270861 Ry
     estimated scf accuracy    <       0.00000233 Ry

     total magnetization       =     1.00 Bohr mag/cell
     absolute magnetization    =     1.51 Bohr mag/cell

     iteration # 18     ecut=    70.00 Ry     beta= 0.70
     Davidson diagonalization with overlap
     ethr =  1.10E-09,  avg # of iterations =  3.5

     negative rho (up, down):  3.412E-02 2.091E-03

     total cpu time spent up to now is     2070.0 secs

     total energy              =    -757.33271291 Ry
     Harris-Foulkes estimate   =    -757.33271359 Ry
     estimated scf accuracy    <       0.00002778 Ry

     total magnetization       =     1.00 Bohr mag/cell
     absolute magnetization    =     1.52 Bohr mag/cell

     iteration # 19     ecut=    70.00 Ry     beta= 0.70
     Davidson diagonalization with overlap
     ethr =  1.10E-09,  avg # of iterations =  2.0

     negative rho (up, down):  3.408E-02 1.782E-03

     total cpu time spent up to now is     2169.9 secs

     total energy              =    -757.33271270 Ry
     Harris-Foulkes estimate   =    -757.33271330 Ry
     estimated scf accuracy    <       0.00001046 Ry

     total magnetization       =     1.00 Bohr mag/cell
     absolute magnetization    =     1.52 Bohr mag/cell

     iteration # 20     ecut=    70.00 Ry     beta= 0.70
     Davidson diagonalization with overlap
     ethr =  1.10E-09,  avg # of iterations =  3.5

     negative rho (up, down):  3.413E-02 1.911E-03

     total cpu time spent up to now is     2279.7 secs

     total energy              =    -757.33271247 Ry
     Harris-Foulkes estimate   =    -757.33271347 Ry
     estimated scf accuracy    <       0.00001605 Ry

     total magnetization       =     1.00 Bohr mag/cell
     absolute magnetization    =     1.53 Bohr mag/cell

     iteration # 21     ecut=    70.00 Ry     beta= 0.70
     Davidson diagonalization with overlap
     ethr =  1.10E-09,  avg # of iterations =  3.0

     negative rho (up, down):  3.412E-02 1.915E-03

     total cpu time spent up to now is     2395.2 secs

     total energy              =    -757.33271392 Ry
     Harris-Foulkes estimate   =    -757.33271344 Ry
     estimated scf accuracy    <       0.00001543 Ry

     total magnetization       =     1.00 Bohr mag/cell
     absolute magnetization    =     1.53 Bohr mag/cell

     iteration # 22     ecut=    70.00 Ry     beta= 0.70
     Davidson diagonalization with overlap
     ethr =  1.10E-09,  avg # of iterations =  1.5

     negative rho (up, down):  3.412E-02 1.915E-03

     total cpu time spent up to now is     2491.6 secs

     total energy              =    -757.33271398 Ry
     Harris-Foulkes estimate   =    -757.33271420 Ry
     estimated scf accuracy    <       0.00000975 Ry

     total magnetization       =     1.00 Bohr mag/cell
     absolute magnetization    =     1.54 Bohr mag/cell

     iteration # 23     ecut=    70.00 Ry     beta= 0.70
     Davidson diagonalization with overlap
     ethr =  1.10E-09,  avg # of iterations =  2.0

     negative rho (up, down):  3.412E-02 1.772E-03

     total cpu time spent up to now is     2586.4 secs

     total energy              =    -757.33271436 Ry
     Harris-Foulkes estimate   =    -757.33271419 Ry
     estimated scf accuracy    <       0.00000607 Ry

     total magnetization       =     1.00 Bohr mag/cell
     absolute magnetization    =     1.54 Bohr mag/cell

     iteration # 24     ecut=    70.00 Ry     beta= 0.70
     Davidson diagonalization with overlap
     ethr =  1.10E-09,  avg # of iterations =  1.0

     negative rho (up, down):  3.411E-02 1.828E-03

     total cpu time spent up to now is     2679.8 secs

     total energy              =    -757.33271436 Ry
     Harris-Foulkes estimate   =    -757.33271446 Ry
     estimated scf accuracy    <       0.00000646 Ry

     total magnetization       =     1.00 Bohr mag/cell
     absolute magnetization    =     1.54 Bohr mag/cell

     iteration # 25     ecut=    70.00 Ry     beta= 0.70
     Davidson diagonalization with overlap
     ethr =  1.10E-09,  avg # of iterations =  3.0

     negative rho (up, down):  3.410E-02 1.920E-03

     total cpu time spent up to now is     2780.1 secs

     total energy              =    -757.33271435 Ry
     Harris-Foulkes estimate   =    -757.33271477 Ry
     estimated scf accuracy    <       0.00000337 Ry

     total magnetization       =     1.00 Bohr mag/cell
     absolute magnetization    =     1.54 Bohr mag/cell

     iteration # 26     ecut=    70.00 Ry     beta= 0.70
     Davidson diagonalization with overlap
     ethr =  1.10E-09,  avg # of iterations =  3.0

     negative rho (up, down):  3.410E-02 1.729E-03

     Magnetic moment per site:
     atom:    1    charge:    0.2119    magn:   -0.0000    constr:    0.0000
     atom:    2    charge:    0.2101    magn:   -0.0000    constr:    0.0000
     atom:    3    charge:    1.7176    magn:   -0.0068    constr:    0.0000
     atom:    4    charge:    1.7156    magn:    0.0092    constr:    0.0000
     atom:    5    charge:    1.7183    magn:   -0.0041    constr:    0.0000
     atom:    6    charge:    1.7141    magn:    0.0026    constr:    0.0000
     atom:    7    charge:    1.7183    magn:   -0.0042    constr:    0.0000
     atom:    8    charge:    1.7157    magn:    0.0094    constr:    0.0000
     atom:    9    charge:    1.7176    magn:   -0.0068    constr:    0.0000
     atom:   10    charge:    1.7145    magn:    0.0312    constr:    0.0000
     atom:   11    charge:    1.7186    magn:   -0.0089    constr:    0.0000
     atom:   12    charge:    1.7142    magn:    0.0303    constr:    0.0000
     atom:   13    charge:    1.7186    magn:   -0.0089    constr:    0.0000
     atom:   14    charge:    1.7146    magn:    0.0234    constr:    0.0000
     atom:   15    charge:    1.7169    magn:   -0.0078    constr:    0.0000
     atom:   16    charge:    1.7110    magn:    0.0295    constr:    0.0000
     atom:   17    charge:    1.7269    magn:   -0.0052    constr:    0.0000
     atom:   18    charge:    1.7109    magn:    0.0293    constr:    0.0000
     atom:   19    charge:    1.7169    magn:   -0.0078    constr:    0.0000
     atom:   20    charge:    1.7143    magn:    0.0226    constr:    0.0000
     atom:   21    charge:    1.7186    magn:   -0.0089    constr:    0.0000
     atom:   22    charge:    1.7145    magn:    0.0312    constr:    0.0000
     atom:   23    charge:    1.7176    magn:   -0.0068    constr:    0.0000
     atom:   24    charge:    1.7157    magn:    0.0094    constr:    0.0000
     atom:   25    charge:    1.7168    magn:   -0.0079    constr:    0.0000
     atom:   26    charge:    1.7113    magn:    0.0304    constr:    0.0000
     atom:   27    charge:    1.9148    magn:   -0.0003    constr:    0.0000
     atom:   28    charge:    7.8614    magn:    0.1021    constr:    0.0000
     atom:   29    charge:    1.9148    magn:   -0.0005    constr:    0.0000
     atom:   30    charge:    1.7109    magn:    0.0293    constr:    0.0000
     atom:   31    charge:    1.7169    magn:   -0.0078    constr:    0.0000
     atom:   32    charge:    1.7157    magn:    0.0094    constr:    0.0000
     atom:   33    charge:    1.7183    magn:   -0.0042    constr:    0.0000
     atom:   34    charge:    1.7138    magn:    0.0068    constr:    0.0000
     atom:   35    charge:    1.7183    magn:   -0.0042    constr:    0.0000
     atom:   36    charge:    1.7140    magn:    0.0026    constr:    0.0000
     atom:   37    charge:    1.7269    magn:   -0.0053    constr:    0.0000
     atom:   38    charge:    1.7113    magn:    0.0304    constr:    0.0000
     atom:   39    charge:    1.9148    magn:   -0.0003    constr:    0.0000
     atom:   40    charge:    1.7110    magn:    0.0295    constr:    0.0000
     atom:   41    charge:    1.7269    magn:   -0.0052    constr:    0.0000
     atom:   42    charge:    1.7141    magn:    0.0026    constr:    0.0000
     atom:   43    charge:    1.7183    magn:   -0.0041    constr:    0.0000
     atom:   44    charge:    1.7138    magn:    0.0067    constr:    0.0000
     atom:   45    charge:    1.7245    magn:   -0.0031    constr:    0.0000
     atom:   46    charge:    1.7138    magn:    0.0068    constr:    0.0000
     atom:   47    charge:    1.7183    magn:   -0.0042    constr:    0.0000
     atom:   48    charge:    1.7157    magn:    0.0094    constr:    0.0000
     atom:   49    charge:    1.7168    magn:   -0.0079    constr:    0.0000
     atom:   50    charge:    1.7146    magn:    0.0234    constr:    0.0000
     atom:   51    charge:    1.7169    magn:   -0.0078    constr:    0.0000
     atom:   52    charge:    1.7156    magn:    0.0092    constr:    0.0000

     total cpu time spent up to now is     2889.9 secs

     End of self-consistent calculation

 ------ SPIN UP ------------


          k = 0.0000 0.0000 0.0000 ( 87777 PWs)   bands (ev):

   -62.8544 -37.9392 -37.9381 -36.6218 -19.6425 -18.8000 -18.7988 -18.7298
   -18.6846 -18.6843 -18.2501 -16.9447 -16.9442 -16.9438 -16.8081 -16.8072
   -16.5246 -16.0914 -16.0913 -15.9973 -15.8429 -15.8425 -15.0917 -13.9036
   -13.8974 -13.8970 -13.8700 -13.8698 -13.1425 -12.9259 -12.9253 -12.9076
   -12.5145 -12.5141 -12.1209 -11.6542 -11.6541 -11.5295 -11.1482 -11.1480
   -10.1592  -9.3468  -9.3467  -9.2664  -9.1908  -9.1905  -9.1004  -9.0758
    -9.0758  -9.0598  -8.4718  -8.4717  -7.9030  -7.9029  -7.8680  -7.8129
    -7.6857  -7.2621  -7.2619  -7.0236  -6.9697  -6.9060  -6.8210  -6.7094
    -6.7058  -6.6793  -6.6003  -6.6002  -6.5538  -6.4428  -6.4428  -6.3987
    -6.3942  -6.3937  -6.3417  -6.2928  -5.2682  -5.2678  -5.1656  -5.1623
    -4.9540  -4.9536  -4.8426  -4.7545  -4.6271  -4.6157  -4.6154  -4.2501
    -3.9932  -3.9930  -3.7670  -3.7667  -3.6666  -3.6406  -3.5067  -3.5067
    -2.9062  -2.2684  -2.2677  -2.2336  -2.2333  -1.7562  -1.6890  -1.6889
    -0.5516  -0.2491  -0.2487   0.8532   1.0410   1.0718   1.0739   1.7834
     2.0424   2.0425   2.5703   2.8874   2.8890   2.9659   3.4911   3.5386
     3.5688   3.7290   3.7465   3.7841   3.8816   3.9941   3.9959

     occupation numbers 
     1.0000   1.0000   1.0000   1.0000   1.0000   1.0000   1.0000   1.0000
     1.0000   1.0000   1.0000   1.0000   1.0000   1.0000   1.0000   1.0000
     1.0000   1.0000   1.0000   1.0000   1.0000   1.0000   1.0000   1.0000
     1.0000   1.0000   1.0000   1.0000   1.0000   1.0000   1.0000   1.0000
     1.0000   1.0000   1.0000   1.0000   1.0000   1.0000   1.0000   1.0000
     1.0000   1.0000   1.0000   1.0000   1.0000   1.0000   1.0000   1.0000
     1.0000   1.0000   1.0000   1.0000   1.0000   1.0000   1.0000   1.0000
     1.0000   1.0000   1.0000   1.0000   1.0000   1.0000   1.0000   1.0000
     1.0000   1.0000   1.0000   1.0000   1.0000   1.0000   1.0000   1.0000
     1.0000   1.0000   1.0000   1.0000   1.0000   1.0000   1.0000   1.0000
     1.0000   1.0000   1.0000   1.0000   1.0000   1.0000   1.0000   1.0000
     1.0000   1.0000   1.0000   1.0000   1.0000   1.0000   1.0000   1.0000
     1.0000   1.0000   1.0000   1.0000   1.0000   1.0000   1.0000   1.0000
     1.0000   0.5124   0.4876   0.0000   0.0000   0.0000   0.0000   0.0000
     0.0000   0.0000   0.0000   0.0000   0.0000   0.0000   0.0000   0.0000
     0.0000   0.0000   0.0000   0.0000   0.0000   0.0000   0.0000

 ------ SPIN DOWN ----------


          k = 0.0000 0.0000 0.0000 ( 87777 PWs)   bands (ev):

   -62.6573 -37.7783 -37.7739 -36.3522 -19.6207 -18.7785 -18.7769 -18.7096
   -18.6680 -18.6677 -18.2181 -16.9280 -16.9258 -16.9248 -16.7799 -16.7787
   -16.5104 -16.0642 -16.0642 -15.9815 -15.8219 -15.8214 -15.0769 -13.8667
   -13.8665 -13.8661 -13.8567 -13.8559 -13.1456 -12.9153 -12.9146 -12.8921
   -12.5064 -12.5059 -12.1026 -11.6364 -11.6363 -11.5163 -11.1358 -11.1354
   -10.1446  -9.3299  -9.3296  -9.2534  -9.1734  -9.1730  -9.0923  -9.0617
    -9.0616  -9.0505  -8.4651  -8.4648  -7.8915  -7.8914  -7.8610  -7.7607
    -7.6772  -7.2533  -7.2531  -6.9677  -6.8915  -6.8852  -6.7889  -6.6733
    -6.6655  -6.6458  -6.5890  -6.5888  -6.5441  -6.4333  -6.4332  -6.3929
    -6.3876  -6.3871  -6.3336  -6.2179  -5.2600  -5.2595  -5.0799  -5.0780
    -4.9441  -4.9437  -4.8368  -4.7486  -4.5851  -4.5649  -4.5640  -4.2124
    -3.9420  -3.9416  -3.6926  -3.6925  -3.6204  -3.6106  -3.5002  -3.5001
    -2.8728  -2.2013  -2.1996  -2.1679  -2.1672  -1.6734  -1.6731  -1.6615
    -0.5458  -0.0236  -0.0199   0.9301   1.0929   1.0951   1.1182   1.8552
     2.1124   2.1134   2.5765   2.9584   2.9604   3.0069   3.4978   3.5696
     3.5759   3.7318   3.7484   3.7899   3.9102   4.0648   4.0662

     occupation numbers 
     1.0000   1.0000   1.0000   1.0000   1.0000   1.0000   1.0000   1.0000
     1.0000   1.0000   1.0000   1.0000   1.0000   1.0000   1.0000   1.0000
     1.0000   1.0000   1.0000   1.0000   1.0000   1.0000   1.0000   1.0000
     1.0000   1.0000   1.0000   1.0000   1.0000   1.0000   1.0000   1.0000
     1.0000   1.0000   1.0000   1.0000   1.0000   1.0000   1.0000   1.0000
     1.0000   1.0000   1.0000   1.0000   1.0000   1.0000   1.0000   1.0000
     1.0000   1.0000   1.0000   1.0000   1.0000   1.0000   1.0000   1.0000
     1.0000   1.0000   1.0000   1.0000   1.0000   1.0000   1.0000   1.0000
     1.0000   1.0000   1.0000   1.0000   1.0000   1.0000   1.0000   1.0000
     1.0000   1.0000   1.0000   1.0000   1.0000   1.0000   1.0000   1.0000
     1.0000   1.0000   1.0000   1.0000   1.0000   1.0000   1.0000   1.0000
     1.0000   1.0000   1.0000   1.0000   1.0000   1.0000   1.0000   1.0000
     1.0000   1.0000   1.0000   1.0000   1.0000   1.0000   1.0000   1.0000
     1.0000   0.0000   0.0000   0.0000   0.0000   0.0000   0.0000   0.0000
     0.0000   0.0000   0.0000   0.0000   0.0000   0.0000   0.0000   0.0000
     0.0000   0.0000   0.0000   0.0000   0.0000   0.0000   0.0000

     the Fermi energy is    -0.2470 ev

!    total energy              =    -757.33271464 Ry
     Harris-Foulkes estimate   =    -757.33271495 Ry
     estimated scf accuracy    <       0.00000058 Ry

     The total energy is the sum of the following terms:

     one-electron contribution =   -2579.32406875 Ry
     hartree contribution      =    1336.43469018 Ry
     xc contribution           =    -252.66648817 Ry
     ewald contribution        =     738.22348008 Ry
     smearing contrib. (-TS)   =      -0.00032798 Ry

     total magnetization       =     1.00 Bohr mag/cell
     absolute magnetization    =     1.54 Bohr mag/cell

     convergence has been achieved in  26 iterations

     Writing output data file distance-3.0.save/

     init_run     :     75.20s CPU     76.59s WALL (       1 calls)
     electrons    :   2762.96s CPU   2812.37s WALL (       1 calls)

     Called by init_run:
     wfcinit      :     42.72s CPU     43.02s WALL (       1 calls)
     wfcinit:atom :      0.07s CPU      0.09s WALL (       2 calls)
     wfcinit:wfcr :     42.29s CPU     42.51s WALL (       2 calls)
     potinit      :     13.54s CPU     14.00s WALL (       1 calls)
     hinit0       :     10.17s CPU     10.21s WALL (       1 calls)

     Called by electrons:
     c_bands      :   1806.08s CPU   1817.00s WALL (      26 calls)
     sum_band     :    554.79s CPU    570.66s WALL (      26 calls)
     v_of_rho     :    200.41s CPU    209.81s WALL (      27 calls)
     v_h          :      2.07s CPU      2.11s WALL (      27 calls)
     v_xc         :    198.34s CPU    207.70s WALL (      27 calls)
     newd         :    198.33s CPU    212.15s WALL (      27 calls)
     mix_rho      :     11.85s CPU     12.02s WALL (      26 calls)

     Called by c_bands:
     init_us_2    :      4.94s CPU      4.98s WALL (     106 calls)
     cegterg      :   1793.25s CPU   1804.10s WALL (      52 calls)

     Called by sum_band:
     sum_band:bec :      0.04s CPU      0.04s WALL (      52 calls)
     addusdens    :    342.91s CPU    357.33s WALL (      26 calls)

     Called by *egterg:
     h_psi        :    938.04s CPU    945.13s WALL (     239 calls)
     s_psi        :    312.53s CPU    312.85s WALL (     239 calls)
     g_psi        :      1.05s CPU      1.05s WALL (     185 calls)
     cdiaghg      :     18.69s CPU     18.70s WALL (     237 calls)
     cegterg:over :    227.38s CPU    227.62s WALL (     185 calls)
     cegterg:upda :    145.72s CPU    146.82s WALL (     185 calls)
     cegterg:last :     98.01s CPU     98.07s WALL (      53 calls)

     Called by h_psi:
     h_psi:pot    :    936.96s CPU    942.85s WALL (     239 calls)
     h_psi:calbec :    312.34s CPU    312.57s WALL (     239 calls)
     vloc_psi     :    312.74s CPU    318.18s WALL (     239 calls)
     add_vuspsi   :    311.88s CPU    312.10s WALL (     239 calls)

     General routines
     calbec       :    438.93s CPU    439.27s WALL (     291 calls)
     fft          :    112.85s CPU    116.70s WALL (    2019 calls)
     ffts         :      2.05s CPU      2.14s WALL (     106 calls)
     fftw         :    327.67s CPU    333.33s WALL (   39290 calls)
     interpolate  :      4.77s CPU      4.90s WALL (      54 calls)

     Parallel routines
     fft_scatt_xy :     80.85s CPU     81.80s WALL (   41415 calls)
     fft_scatt_yz :    145.73s CPU    152.71s WALL (   41415 calls)

     PWSCF        :  47m19.51s CPU  48m10.73s WALL


   This run was terminated on:   5: 2:37  23Aug2022            

=------------------------------------------------------------------------------=
   JOB DONE.
=------------------------------------------------------------------------------=
