
     Program PWSCF v.6.4.1 starts on 23Aug2022 at  2:35:18 

     This program is part of the open-source Quantum ESPRESSO suite
     for quantum simulation of materials; please cite
         "P. Giannozzi et al., J. Phys.:Condens. Matter 21 395502 (2009);
         "P. Giannozzi et al., J. Phys.:Condens. Matter 29 465901 (2017);
          URL http://www.quantum-espresso.org", 
     in publications or presentations arising from this work. More details at
     http://www.quantum-espresso.org/quote

     Parallel version (MPI), running on     6 processors

     MPI processes distributed on     1 nodes
     R & G space division:  proc/nbgrp/npool/nimage =       6
     Reading input from distance-4.0.in

     Current dimensions of program PWSCF are:
     Max number of different atomic species (ntypx) = 10
     Max number of k-points (npk) =  40000
     Max angular momentum in pseudopotentials (lmaxx) =  3

     IMPORTANT: XC functional enforced from input :
     Exchange-correlation      = RVV10 ( 1  4 13  4 3 0)
     Any further DFT definition will be discarded
     Please, verify this is what you really want

               file H.pbe-rrkjus.UPF: wavefunction(s)  1S renormalized
               file V.pbe-spnl-rrkjus_psl.1.0.0.UPF: wavefunction(s)  3P 3D renormalized

     Subspace diagonalization in iterative solution of the eigenvalue problem:
     a serial algorithm will be used


     Parallelization info
     --------------------
     sticks:   dense  smooth     PW     G-vecs:    dense   smooth      PW
     Min        3051    1746    432               270999   117096   14629
     Max        3053    1747    437               271001   117099   14630
     Sum       18313   10477   2611              1626001   702581   87777



     bravais-lattice index     =            4
     lattice parameter (alat)  =      23.2937  a.u.
     unit-cell volume          =    8879.8548 (a.u.)^3
     number of atoms/cell      =           52
     number of atomic types    =            3
     number of electrons       =       211.00
     number of Kohn-Sham states=          127
     kinetic-energy cutoff     =      70.0000  Ry
     charge density cutoff     =     490.0000  Ry
     convergence threshold     =      1.0E-06
     mixing beta               =       0.7000
     number of iterations used =            8  plain     mixing
     Exchange-correlation      = RVV10 ( 1  4 13  4 3 0)

     celldm(1)=  23.293684  celldm(2)=   0.000000  celldm(3)=   0.811261
     celldm(4)=   0.000000  celldm(5)=   0.000000  celldm(6)=   0.000000

     crystal axes: (cart. coord. in units of alat)
               a(1) = (   1.000000   0.000000   0.000000 )  
               a(2) = (  -0.500000   0.866025   0.000000 )  
               a(3) = (   0.000000   0.000000   0.811261 )  

     reciprocal axes: (cart. coord. in units 2 pi/alat)
               b(1) = (  1.000000  0.577350 -0.000000 )  
               b(2) = (  0.000000  1.154701  0.000000 )  
               b(3) = (  0.000000 -0.000000  1.232649 )  


     PseudoPot. # 1 for H  read from file:
     /home/cristian/Escritorio/Proyecto_Grafeno/pseudopotenciales/H.pbe-rrkjus.UPF
     MD5 check sum: 7cc9d459525c9a0585f487a71c3c9563
     Pseudo is Ultrasoft, Zval =  1.0
     Generated by new atomic code, or converted to UPF format
     Using radial grid of 1061 points,  2 beta functions with: 
                l(1) =   0
                l(2) =   0
     Q(r) pseudized with 0 coefficients 


     PseudoPot. # 2 for C  read from file:
     /home/cristian/Escritorio/Proyecto_Grafeno/pseudopotenciales/C.pbe-n-rrkjus_psl.1.0.0.UPF
     MD5 check sum: 1fdd950c42eb37d8afe3dd2f8d12311e
     Pseudo is Ultrasoft + core correction, Zval =  4.0
     Generated using "atomic" code by A. Dal Corso v.6.3MaX
     Using radial grid of 1073 points,  4 beta functions with: 
                l(1) =   0
                l(2) =   0
                l(3) =   1
                l(4) =   1
     Q(r) pseudized with 0 coefficients 


     PseudoPot. # 3 for V  read from file:
     /home/cristian/Escritorio/Proyecto_Grafeno/pseudopotenciales/V.pbe-spnl-rrkjus_psl.1.0.0.UPF
     MD5 check sum: 79b3eb63147daf0b665d9f1bcc691206
     Pseudo is Ultrasoft + core correction, Zval = 13.0
     Generated using "atomic" code by A. Dal Corso v.6.2.2
     Using radial grid of 1181 points,  6 beta functions with: 
                l(1) =   0
                l(2) =   0
                l(3) =   1
                l(4) =   1
                l(5) =   2
                l(6) =   2
     Q(r) pseudized with 0 coefficients 


     vdW kernel table read from file rVV10_kernel_table
     MD5 check sum: b8e2538accc0c0b3206b45ba4daaba6c

     atomic species   valence    mass     pseudopotential
        H              1.00     1.00794     H ( 1.00)
        C              4.00    12.01070     C ( 1.00)
        V             13.00    50.94150     V ( 1.00)

     Starting magnetic structure 
     atomic species   magnetization
        H            0.500
        C            0.300
        V            0.800

      2 Sym. Ops. (no inversion) found


                                    s                        frac. trans.

      isym =  1     identity                                     

 cryst.   s( 1) = (     1          0          0      )
                  (     0          1          0      )
                  (     0          0          1      )

 cart.    s( 1) = (  1.0000000  0.0000000  0.0000000 )
                  (  0.0000000  1.0000000  0.0000000 )
                  (  0.0000000  0.0000000  1.0000000 )


      isym =  2     inv. 180 deg rotation - cryst. axis [1,1,0]  

 cryst.   s( 2) = (     0         -1          0      )
                  (    -1          0          0      )
                  (     0          0          1      )

 cart.    s( 2) = (  0.5000000 -0.8660254  0.0000000 )
                  ( -0.8660254 -0.5000000  0.0000000 )
                  (  0.0000000  0.0000000  1.0000000 )


     point group C_s (m)    
     there are  2 classes
     the character table:

       E     s    
A'     1.00  1.00
A''    1.00 -1.00

     the symmetry operations in each class and the name of the first element:

     E        1
          identity                                               
     s        2
          inv. 180 deg rotation - cryst. axis [1,1,0]            

   Cartesian axes

     site n.     atom                  positions (alat units)
         1           H   tau(   1) = (   0.3000000   0.4041452   0.3245045  )
         2           H   tau(   2) = (   0.3000000   0.4041452   0.3855171  )
         3           C   tau(   3) = (   0.0000000   0.0000000   0.0000000  )
         4           C   tau(   4) = (   0.0000000   0.1154701   0.0000000  )
         5           C   tau(   5) = (  -0.1000000   0.1732051   0.0000000  )
         6           C   tau(   6) = (  -0.1000000   0.2886751   0.0000000  )
         7           C   tau(   7) = (  -0.2000000   0.3464102   0.0000000  )
         8           C   tau(   8) = (  -0.2000000   0.4618802   0.0000000  )
         9           C   tau(   9) = (  -0.3000000   0.5196152   0.0000000  )
        10           C   tau(  10) = (  -0.3000000   0.6350853   0.0000000  )
        11           C   tau(  11) = (  -0.4000000   0.6928203   0.0000000  )
        12           C   tau(  12) = (  -0.4000000   0.8082904   0.0000000  )
        13           C   tau(  13) = (   0.2000000   0.0000000   0.0000000  )
        14           C   tau(  14) = (   0.2000000   0.1154701   0.0000000  )
        15           C   tau(  15) = (   0.1000000   0.1732051   0.0000000  )
        16           C   tau(  16) = (   0.1000000   0.2886751   0.0000000  )
        17           C   tau(  17) = (   0.0000000   0.3464102   0.0000000  )
        18           C   tau(  18) = (   0.0000000   0.4618802   0.0000000  )
        19           C   tau(  19) = (  -0.1000000   0.5196152   0.0000000  )
        20           C   tau(  20) = (  -0.1000000   0.6350853   0.0000000  )
        21           C   tau(  21) = (  -0.2000000   0.6928203   0.0000000  )
        22           C   tau(  22) = (  -0.2000000   0.8082904   0.0000000  )
        23           C   tau(  23) = (   0.4000000   0.0000000   0.0000000  )
        24           C   tau(  24) = (   0.4000000   0.1154701   0.0000000  )
        25           C   tau(  25) = (   0.3000000   0.1732051   0.0000000  )
        26           C   tau(  26) = (   0.3000000   0.2886751   0.0000000  )
        27           C   tau(  27) = (   0.2000000   0.3464102   0.0000000  )
        28           V   tau(  28) = (   0.2000000   0.4618802   0.0000000  )
        29           C   tau(  29) = (   0.1000000   0.5196152   0.0000000  )
        30           C   tau(  30) = (   0.1000000   0.6350853   0.0000000  )
        31           C   tau(  31) = (   0.0000000   0.6928203   0.0000000  )
        32           C   tau(  32) = (   0.0000000   0.8082904   0.0000000  )
        33           C   tau(  33) = (   0.6000000   0.0000000   0.0000000  )
        34           C   tau(  34) = (   0.6000000   0.1154701   0.0000000  )
        35           C   tau(  35) = (   0.5000000   0.1732051   0.0000000  )
        36           C   tau(  36) = (   0.5000000   0.2886751   0.0000000  )
        37           C   tau(  37) = (   0.4000000   0.3464102   0.0000000  )
        38           C   tau(  38) = (   0.4000000   0.4618802   0.0000000  )
        39           C   tau(  39) = (   0.3000000   0.5196152   0.0000000  )
        40           C   tau(  40) = (   0.3000000   0.6350853   0.0000000  )
        41           C   tau(  41) = (   0.2000000   0.6928203   0.0000000  )
        42           C   tau(  42) = (   0.2000000   0.8082904   0.0000000  )
        43           C   tau(  43) = (   0.8000000   0.0000000   0.0000000  )
        44           C   tau(  44) = (   0.8000000   0.1154701   0.0000000  )
        45           C   tau(  45) = (   0.7000000   0.1732051   0.0000000  )
        46           C   tau(  46) = (   0.7000000   0.2886751   0.0000000  )
        47           C   tau(  47) = (   0.6000000   0.3464102   0.0000000  )
        48           C   tau(  48) = (   0.6000000   0.4618802   0.0000000  )
        49           C   tau(  49) = (   0.5000000   0.5196152   0.0000000  )
        50           C   tau(  50) = (   0.5000000   0.6350853   0.0000000  )
        51           C   tau(  51) = (   0.4000000   0.6928203   0.0000000  )
        52           C   tau(  52) = (   0.4000000   0.8082904   0.0000000  )

   Crystallographic axes

     site n.     atom                  positions (cryst. coord.)
         1           H   tau(   1) = (  0.5333333  0.4666667  0.4000000  )
         2           H   tau(   2) = (  0.5333333  0.4666667  0.4752072  )
         3           C   tau(   3) = (  0.0000000  0.0000000  0.0000000  )
         4           C   tau(   4) = (  0.0666667  0.1333333  0.0000000  )
         5           C   tau(   5) = (  0.0000000  0.2000000  0.0000000  )
         6           C   tau(   6) = (  0.0666667  0.3333333  0.0000000  )
         7           C   tau(   7) = (  0.0000000  0.4000000  0.0000000  )
         8           C   tau(   8) = (  0.0666667  0.5333333  0.0000000  )
         9           C   tau(   9) = (  0.0000000  0.6000000  0.0000000  )
        10           C   tau(  10) = (  0.0666667  0.7333333  0.0000000  )
        11           C   tau(  11) = (  0.0000000  0.8000000  0.0000000  )
        12           C   tau(  12) = (  0.0666667  0.9333333  0.0000000  )
        13           C   tau(  13) = (  0.2000000  0.0000000  0.0000000  )
        14           C   tau(  14) = (  0.2666667  0.1333333  0.0000000  )
        15           C   tau(  15) = (  0.2000000  0.2000000  0.0000000  )
        16           C   tau(  16) = (  0.2666667  0.3333333  0.0000000  )
        17           C   tau(  17) = (  0.2000000  0.4000000  0.0000000  )
        18           C   tau(  18) = (  0.2666667  0.5333333  0.0000000  )
        19           C   tau(  19) = (  0.2000000  0.6000000  0.0000000  )
        20           C   tau(  20) = (  0.2666667  0.7333333  0.0000000  )
        21           C   tau(  21) = (  0.2000000  0.8000000  0.0000000  )
        22           C   tau(  22) = (  0.2666667  0.9333333  0.0000000  )
        23           C   tau(  23) = (  0.4000000  0.0000000  0.0000000  )
        24           C   tau(  24) = (  0.4666667  0.1333333  0.0000000  )
        25           C   tau(  25) = (  0.4000000  0.2000000  0.0000000  )
        26           C   tau(  26) = (  0.4666667  0.3333333  0.0000000  )
        27           C   tau(  27) = (  0.4000000  0.4000000  0.0000000  )
        28           V   tau(  28) = (  0.4666667  0.5333333  0.0000000  )
        29           C   tau(  29) = (  0.4000000  0.6000000  0.0000000  )
        30           C   tau(  30) = (  0.4666667  0.7333333  0.0000000  )
        31           C   tau(  31) = (  0.4000000  0.8000000  0.0000000  )
        32           C   tau(  32) = (  0.4666667  0.9333333  0.0000000  )
        33           C   tau(  33) = (  0.6000000  0.0000000  0.0000000  )
        34           C   tau(  34) = (  0.6666667  0.1333333  0.0000000  )
        35           C   tau(  35) = (  0.6000000  0.2000000  0.0000000  )
        36           C   tau(  36) = (  0.6666667  0.3333333  0.0000000  )
        37           C   tau(  37) = (  0.6000000  0.4000000  0.0000000  )
        38           C   tau(  38) = (  0.6666667  0.5333333  0.0000000  )
        39           C   tau(  39) = (  0.6000000  0.6000000  0.0000000  )
        40           C   tau(  40) = (  0.6666667  0.7333333  0.0000000  )
        41           C   tau(  41) = (  0.6000000  0.8000000  0.0000000  )
        42           C   tau(  42) = (  0.6666667  0.9333333  0.0000000  )
        43           C   tau(  43) = (  0.8000000  0.0000000  0.0000000  )
        44           C   tau(  44) = (  0.8666667  0.1333333  0.0000000  )
        45           C   tau(  45) = (  0.8000000  0.2000000  0.0000000  )
        46           C   tau(  46) = (  0.8666667  0.3333333  0.0000000  )
        47           C   tau(  47) = (  0.8000000  0.4000000  0.0000000  )
        48           C   tau(  48) = (  0.8666667  0.5333333  0.0000000  )
        49           C   tau(  49) = (  0.8000000  0.6000000  0.0000000  )
        50           C   tau(  50) = (  0.8666667  0.7333333  0.0000000  )
        51           C   tau(  51) = (  0.8000000  0.8000000  0.0000000  )
        52           C   tau(  52) = (  0.8666667  0.9333333  0.0000000  )

     number of k points=     1  Marzari-Vanderbilt smearing, width (Ry)=  0.0010
                       cart. coord. in units 2pi/alat
        k(    1) = (   0.0000000   0.0000000   0.0000000), wk =   1.0000000

                       cryst. coord.
        k(    1) = (   0.0000000   0.0000000   0.0000000), wk =   1.0000000

     Dense  grid:  1626001 G-vectors     FFT dimensions: ( 180, 180, 135)

     Smooth grid:   702581 G-vectors     FFT dimensions: ( 125, 125, 108)

     Dynamical RAM for                 wfc:      28.36 MB

     Dynamical RAM for     wfc (w. buffer):      85.09 MB

     Dynamical RAM for           str. fact:      12.41 MB

     Dynamical RAM for           local pot:       0.00 MB

     Dynamical RAM for          nlocal pot:      92.46 MB

     Dynamical RAM for                qrad:      19.73 MB

     Dynamical RAM for          rho,v,vnew:      58.92 MB

     Dynamical RAM for               rhoin:      19.64 MB

     Dynamical RAM for            rho*nmix:     132.32 MB

     Dynamical RAM for           G-vectors:      16.40 MB

     Dynamical RAM for          h,s,v(r/c):      11.81 MB

     Dynamical RAM for          <psi|beta>:       0.80 MB

     Dynamical RAM for                 psi:     113.46 MB

     Dynamical RAM for                hpsi:     113.46 MB

     Dynamical RAM for                spsi:     113.46 MB

     Dynamical RAM for      wfcinit/wfcrot:      93.90 MB

     Dynamical RAM for           addusdens:     975.89 MB

     Estimated static dynamical RAM per process >     487.63 MB

     Estimated max dynamical RAM per process >       1.43 GB

     Estimated total dynamical RAM >       8.58 GB
     Generating pointlists ...
     new r_m :   0.0252 (alat units)  0.5862 (a.u.) for type    1
     new r_m :   0.0476 (alat units)  1.1095 (a.u.) for type    2
     new r_m :   0.0476 (alat units)  1.1095 (a.u.) for type    3

     Check: negative core charge=   -0.000002

     Initial potential from superposition of free atoms

     starting charge  210.80465, renormalised to  211.00000

     negative rho (up, down):  1.139E-04 1.318E-02


---------------------------------------------------------------------------------
Carrying out rVV10 run using the following parameters:
Nqs =      20    Nr_points =    1024   r_max =   100.000
b_value =  6.30000    beta =  0.00901
     q_mesh =  0.00010000  0.00030000  0.00058939  0.00100810
               0.00161396  0.00249058  0.00375900  0.00559430
               0.00824984  0.01209221  0.01765183  0.02569619
               0.03733578  0.05417739  0.07854596  0.11380545
               0.16482331  0.23864234  0.34545298  0.50000000

Gradients computed in Reciprocal space

---------------------------------------------------------------------------------


     Starting wfcs are  208 randomized atomic wfcs

     total cpu time spent up to now is       78.3 secs

     Self-consistent Calculation

     iteration #  1     ecut=    70.00 Ry     beta= 0.70
     Davidson diagonalization with overlap
     ethr =  1.00E-02,  avg # of iterations =  3.0

     negative rho (up, down):  2.104E-04 1.076E-02

     total cpu time spent up to now is      208.1 secs

     total energy              =    -753.61826201 Ry
     Harris-Foulkes estimate   =    -756.85751192 Ry
     estimated scf accuracy    <      10.99370539 Ry

     total magnetization       =     5.00 Bohr mag/cell
     absolute magnetization    =     6.02 Bohr mag/cell

     iteration #  2     ecut=    70.00 Ry     beta= 0.70
     Davidson diagonalization with overlap
     ethr =  5.21E-03,  avg # of iterations =  6.5

     negative rho (up, down):  2.442E-03 1.573E-01

     total cpu time spent up to now is      330.7 secs

     total energy              =    -747.35197683 Ry
     Harris-Foulkes estimate   =    -765.63008873 Ry
     estimated scf accuracy    <      62.98792846 Ry

     total magnetization       =     3.00 Bohr mag/cell
     absolute magnetization    =     3.35 Bohr mag/cell

     iteration #  3     ecut=    70.00 Ry     beta= 0.70
     Davidson diagonalization with overlap
     ethr =  5.21E-03,  avg # of iterations =  5.0

     negative rho (up, down):  1.302E-03 1.969E-02

     total cpu time spent up to now is      507.9 secs

     total energy              =    -755.74716395 Ry
     Harris-Foulkes estimate   =    -758.32654656 Ry
     estimated scf accuracy    <      12.36245442 Ry

     total magnetization       =     5.00 Bohr mag/cell
     absolute magnetization    =     5.78 Bohr mag/cell

     iteration #  4     ecut=    70.00 Ry     beta= 0.70
     Davidson diagonalization with overlap
     ethr =  5.21E-03,  avg # of iterations =  3.5

     negative rho (up, down):  4.194E-02 2.011E-02

     total cpu time spent up to now is      603.5 secs

     total energy              =    -757.08738626 Ry
     Harris-Foulkes estimate   =    -757.48407965 Ry
     estimated scf accuracy    <       1.19912748 Ry

     total magnetization       =     1.00 Bohr mag/cell
     absolute magnetization    =     1.71 Bohr mag/cell

     iteration #  5     ecut=    70.00 Ry     beta= 0.70
     Davidson diagonalization with overlap
     ethr =  5.68E-04,  avg # of iterations =  8.5

     negative rho (up, down):  4.446E-02 1.748E-02

     total cpu time spent up to now is      719.4 secs

     total energy              =    -757.23299221 Ry
     Harris-Foulkes estimate   =    -757.30168827 Ry
     estimated scf accuracy    <       0.23136157 Ry

     total magnetization       =     1.00 Bohr mag/cell
     absolute magnetization    =     1.49 Bohr mag/cell

     iteration #  6     ecut=    70.00 Ry     beta= 0.70
     Davidson diagonalization with overlap
     ethr =  1.10E-04,  avg # of iterations =  3.5

     negative rho (up, down):  2.928E-02 1.571E-02

     total cpu time spent up to now is      833.5 secs

     total energy              =    -757.28039702 Ry
     Harris-Foulkes estimate   =    -757.33771934 Ry
     estimated scf accuracy    <       0.28265748 Ry

     total magnetization       =     1.00 Bohr mag/cell
     absolute magnetization    =     1.43 Bohr mag/cell

     iteration #  7     ecut=    70.00 Ry     beta= 0.70
     Davidson diagonalization with overlap
     ethr =  1.10E-04,  avg # of iterations =  3.0

     negative rho (up, down):  3.035E-02 1.328E-02

     total cpu time spent up to now is      934.6 secs

     total energy              =    -757.31700536 Ry
     Harris-Foulkes estimate   =    -757.32161244 Ry
     estimated scf accuracy    <       0.03320511 Ry

     total magnetization       =     1.00 Bohr mag/cell
     absolute magnetization    =     1.36 Bohr mag/cell

     iteration #  8     ecut=    70.00 Ry     beta= 0.70
     Davidson diagonalization with overlap
     ethr =  1.57E-05,  avg # of iterations =  6.0

     negative rho (up, down):  3.041E-02 2.212E-02

     total cpu time spent up to now is     1055.0 secs

     total energy              =    -757.32372822 Ry
     Harris-Foulkes estimate   =    -757.32922268 Ry
     estimated scf accuracy    <       0.03980748 Ry

     total magnetization       =     1.00 Bohr mag/cell
     absolute magnetization    =     1.38 Bohr mag/cell

     iteration #  9     ecut=    70.00 Ry     beta= 0.70
     Davidson diagonalization with overlap
     ethr =  1.57E-05,  avg # of iterations =  3.5

     negative rho (up, down):  3.343E-02 1.789E-02

     total cpu time spent up to now is     1154.9 secs

     total energy              =    -757.32746756 Ry
     Harris-Foulkes estimate   =    -757.32853645 Ry
     estimated scf accuracy    <       0.00585587 Ry

     total magnetization       =     1.00 Bohr mag/cell
     absolute magnetization    =     1.39 Bohr mag/cell

     iteration # 10     ecut=    70.00 Ry     beta= 0.70
     Davidson diagonalization with overlap
     ethr =  2.78E-06,  avg # of iterations =  8.0

     negative rho (up, down):  3.393E-02 1.342E-02

     total cpu time spent up to now is     1257.0 secs

     total energy              =    -757.32846255 Ry
     Harris-Foulkes estimate   =    -757.32849924 Ry
     estimated scf accuracy    <       0.00477329 Ry

     total magnetization       =     1.00 Bohr mag/cell
     absolute magnetization    =     1.41 Bohr mag/cell

     iteration # 11     ecut=    70.00 Ry     beta= 0.70
     Davidson diagonalization with overlap
     ethr =  2.26E-06,  avg # of iterations =  2.0

     negative rho (up, down):  3.312E-02 2.844E-03

     total cpu time spent up to now is     1350.8 secs

     total energy              =    -757.33000311 Ry
     Harris-Foulkes estimate   =    -757.32876359 Ry
     estimated scf accuracy    <       0.00015531 Ry

     total magnetization       =     1.00 Bohr mag/cell
     absolute magnetization    =     1.42 Bohr mag/cell

     iteration # 12     ecut=    70.00 Ry     beta= 0.70
     Davidson diagonalization with overlap
     ethr =  7.36E-08,  avg # of iterations =  4.5

     negative rho (up, down):  3.361E-02 3.484E-03

     total cpu time spent up to now is     1476.5 secs

     total energy              =    -757.33007125 Ry
     Harris-Foulkes estimate   =    -757.33009525 Ry
     estimated scf accuracy    <       0.00007922 Ry

     total magnetization       =     1.00 Bohr mag/cell
     absolute magnetization    =     1.46 Bohr mag/cell

     iteration # 13     ecut=    70.00 Ry     beta= 0.70
     Davidson diagonalization with overlap
     ethr =  3.75E-08,  avg # of iterations =  3.5

     negative rho (up, down):  3.381E-02 2.375E-03

     total cpu time spent up to now is     1587.2 secs

     total energy              =    -757.33009336 Ry
     Harris-Foulkes estimate   =    -757.33010080 Ry
     estimated scf accuracy    <       0.00004226 Ry

     total magnetization       =     1.00 Bohr mag/cell
     absolute magnetization    =     1.48 Bohr mag/cell

     iteration # 14     ecut=    70.00 Ry     beta= 0.70
     Davidson diagonalization with overlap
     ethr =  2.00E-08,  avg # of iterations =  3.5

     negative rho (up, down):  3.395E-02 3.654E-03

     total cpu time spent up to now is     1690.5 secs

     total energy              =    -757.33009702 Ry
     Harris-Foulkes estimate   =    -757.33010612 Ry
     estimated scf accuracy    <       0.00007191 Ry

     total magnetization       =     1.00 Bohr mag/cell
     absolute magnetization    =     1.49 Bohr mag/cell

     iteration # 15     ecut=    70.00 Ry     beta= 0.70
     Davidson diagonalization with overlap
     ethr =  2.00E-08,  avg # of iterations =  2.5

     negative rho (up, down):  3.395E-02 2.301E-03

     total cpu time spent up to now is     1785.1 secs

     total energy              =    -757.33010638 Ry
     Harris-Foulkes estimate   =    -757.33010226 Ry
     estimated scf accuracy    <       0.00003146 Ry

     total magnetization       =     1.00 Bohr mag/cell
     absolute magnetization    =     1.50 Bohr mag/cell

     iteration # 16     ecut=    70.00 Ry     beta= 0.70
     Davidson diagonalization with overlap
     ethr =  1.49E-08,  avg # of iterations =  1.0

     negative rho (up, down):  3.401E-02 3.237E-03

     total cpu time spent up to now is     1879.2 secs

     total energy              =    -757.33010420 Ry
     Harris-Foulkes estimate   =    -757.33010794 Ry
     estimated scf accuracy    <       0.00003656 Ry

     total magnetization       =     1.00 Bohr mag/cell
     absolute magnetization    =     1.51 Bohr mag/cell

     iteration # 17     ecut=    70.00 Ry     beta= 0.70
     Davidson diagonalization with overlap
     ethr =  1.49E-08,  avg # of iterations =  1.0

     negative rho (up, down):  3.393E-02 1.659E-03

     total cpu time spent up to now is     1972.2 secs

     total energy              =    -757.33010961 Ry
     Harris-Foulkes estimate   =    -757.33010490 Ry
     estimated scf accuracy    <       0.00001045 Ry

     total magnetization       =     1.00 Bohr mag/cell
     absolute magnetization    =     1.51 Bohr mag/cell

     iteration # 18     ecut=    70.00 Ry     beta= 0.70
     Davidson diagonalization with overlap
     ethr =  4.95E-09,  avg # of iterations =  3.0

     negative rho (up, down):  3.398E-02 1.960E-03

     total cpu time spent up to now is     2072.0 secs

     total energy              =    -757.33011096 Ry
     Harris-Foulkes estimate   =    -757.33011161 Ry
     estimated scf accuracy    <       0.00004367 Ry

     total magnetization       =     1.00 Bohr mag/cell
     absolute magnetization    =     1.52 Bohr mag/cell

     iteration # 19     ecut=    70.00 Ry     beta= 0.70
     Davidson diagonalization with overlap
     ethr =  4.95E-09,  avg # of iterations =  1.5

     negative rho (up, down):  3.391E-02 2.184E-03

     total cpu time spent up to now is     2167.2 secs

     total energy              =    -757.33010828 Ry
     Harris-Foulkes estimate   =    -757.33011181 Ry
     estimated scf accuracy    <       0.00002511 Ry

     total magnetization       =     1.00 Bohr mag/cell
     absolute magnetization    =     1.53 Bohr mag/cell

     iteration # 20     ecut=    70.00 Ry     beta= 0.70
     Davidson diagonalization with overlap
     ethr =  4.95E-09,  avg # of iterations =  3.0

     negative rho (up, down):  3.398E-02 1.652E-03

     total cpu time spent up to now is     2262.7 secs

     total energy              =    -757.33011152 Ry
     Harris-Foulkes estimate   =    -757.33010918 Ry
     estimated scf accuracy    <       0.00002731 Ry

     total magnetization       =     1.00 Bohr mag/cell
     absolute magnetization    =     1.53 Bohr mag/cell

     iteration # 21     ecut=    70.00 Ry     beta= 0.70
     Davidson diagonalization with overlap
     ethr =  4.95E-09,  avg # of iterations =  2.5

     negative rho (up, down):  3.400E-02 1.647E-03

     total cpu time spent up to now is     2359.9 secs

     total energy              =    -757.33011001 Ry
     Harris-Foulkes estimate   =    -757.33011295 Ry
     estimated scf accuracy    <       0.00001797 Ry

     total magnetization       =     1.00 Bohr mag/cell
     absolute magnetization    =     1.54 Bohr mag/cell

     iteration # 22     ecut=    70.00 Ry     beta= 0.70
     Davidson diagonalization with overlap
     ethr =  4.95E-09,  avg # of iterations =  3.0

     negative rho (up, down):  3.400E-02 1.662E-03

     total cpu time spent up to now is     2460.5 secs

     total energy              =    -757.33011229 Ry
     Harris-Foulkes estimate   =    -757.33011163 Ry
     estimated scf accuracy    <       0.00000661 Ry

     total magnetization       =     1.00 Bohr mag/cell
     absolute magnetization    =     1.55 Bohr mag/cell

     iteration # 23     ecut=    70.00 Ry     beta= 0.70
     Davidson diagonalization with overlap
     ethr =  3.13E-09,  avg # of iterations =  1.0

     negative rho (up, down):  3.399E-02 1.661E-03

     total cpu time spent up to now is     2553.5 secs

     total energy              =    -757.33011304 Ry
     Harris-Foulkes estimate   =    -757.33011249 Ry
     estimated scf accuracy    <       0.00000498 Ry

     total magnetization       =     1.00 Bohr mag/cell
     absolute magnetization    =     1.55 Bohr mag/cell

     iteration # 24     ecut=    70.00 Ry     beta= 0.70
     Davidson diagonalization with overlap
     ethr =  2.36E-09,  avg # of iterations =  3.0

     negative rho (up, down):  3.397E-02 1.698E-03

     total cpu time spent up to now is     2650.8 secs

     total energy              =    -757.33011429 Ry
     Harris-Foulkes estimate   =    -757.33011365 Ry
     estimated scf accuracy    <       0.00000101 Ry

     total magnetization       =     1.00 Bohr mag/cell
     absolute magnetization    =     1.55 Bohr mag/cell

     iteration # 25     ecut=    70.00 Ry     beta= 0.70
     Davidson diagonalization with overlap
     ethr =  4.81E-10,  avg # of iterations =  3.0

     negative rho (up, down):  3.396E-02 1.617E-03

     total cpu time spent up to now is     2764.5 secs

     total energy              =    -757.33011462 Ry
     Harris-Foulkes estimate   =    -757.33011465 Ry
     estimated scf accuracy    <       0.00000200 Ry

     total magnetization       =     1.00 Bohr mag/cell
     absolute magnetization    =     1.54 Bohr mag/cell

     iteration # 26     ecut=    70.00 Ry     beta= 0.70
     Davidson diagonalization with overlap
     ethr =  4.81E-10,  avg # of iterations =  2.0

     negative rho (up, down):  3.396E-02 1.767E-03

     total cpu time spent up to now is     2859.5 secs

     total energy              =    -757.33011408 Ry
     Harris-Foulkes estimate   =    -757.33011474 Ry
     estimated scf accuracy    <       0.00000168 Ry

     total magnetization       =     1.00 Bohr mag/cell
     absolute magnetization    =     1.54 Bohr mag/cell

     iteration # 27     ecut=    70.00 Ry     beta= 0.70
     Davidson diagonalization with overlap
     ethr =  4.81E-10,  avg # of iterations =  3.5

     negative rho (up, down):  3.396E-02 1.601E-03

     Magnetic moment per site:
     atom:    1    charge:    0.2113    magn:   -0.0000    constr:    0.0000
     atom:    2    charge:    0.2113    magn:   -0.0000    constr:    0.0000
     atom:    3    charge:    1.7177    magn:   -0.0067    constr:    0.0000
     atom:    4    charge:    1.7156    magn:    0.0090    constr:    0.0000
     atom:    5    charge:    1.7183    magn:   -0.0041    constr:    0.0000
     atom:    6    charge:    1.7141    magn:    0.0026    constr:    0.0000
     atom:    7    charge:    1.7182    magn:   -0.0042    constr:    0.0000
     atom:    8    charge:    1.7157    magn:    0.0095    constr:    0.0000
     atom:    9    charge:    1.7176    magn:   -0.0068    constr:    0.0000
     atom:   10    charge:    1.7145    magn:    0.0315    constr:    0.0000
     atom:   11    charge:    1.7186    magn:   -0.0089    constr:    0.0000
     atom:   12    charge:    1.7142    magn:    0.0297    constr:    0.0000
     atom:   13    charge:    1.7186    magn:   -0.0089    constr:    0.0000
     atom:   14    charge:    1.7146    magn:    0.0235    constr:    0.0000
     atom:   15    charge:    1.7169    magn:   -0.0078    constr:    0.0000
     atom:   16    charge:    1.7110    magn:    0.0293    constr:    0.0000
     atom:   17    charge:    1.7270    magn:   -0.0051    constr:    0.0000
     atom:   18    charge:    1.7109    magn:    0.0289    constr:    0.0000
     atom:   19    charge:    1.7169    magn:   -0.0077    constr:    0.0000
     atom:   20    charge:    1.7143    magn:    0.0222    constr:    0.0000
     atom:   21    charge:    1.7186    magn:   -0.0089    constr:    0.0000
     atom:   22    charge:    1.7145    magn:    0.0315    constr:    0.0000
     atom:   23    charge:    1.7176    magn:   -0.0068    constr:    0.0000
     atom:   24    charge:    1.7157    magn:    0.0095    constr:    0.0000
     atom:   25    charge:    1.7169    magn:   -0.0080    constr:    0.0000
     atom:   26    charge:    1.7113    magn:    0.0310    constr:    0.0000
     atom:   27    charge:    1.9148    magn:   -0.0003    constr:    0.0000
     atom:   28    charge:    7.8615    magn:    0.1022    constr:    0.0000
     atom:   29    charge:    1.9149    magn:   -0.0006    constr:    0.0000
     atom:   30    charge:    1.7109    magn:    0.0289    constr:    0.0000
     atom:   31    charge:    1.7169    magn:   -0.0077    constr:    0.0000
     atom:   32    charge:    1.7157    magn:    0.0095    constr:    0.0000
     atom:   33    charge:    1.7182    magn:   -0.0042    constr:    0.0000
     atom:   34    charge:    1.7138    magn:    0.0069    constr:    0.0000
     atom:   35    charge:    1.7183    magn:   -0.0042    constr:    0.0000
     atom:   36    charge:    1.7141    magn:    0.0026    constr:    0.0000
     atom:   37    charge:    1.7270    magn:   -0.0054    constr:    0.0000
     atom:   38    charge:    1.7113    magn:    0.0310    constr:    0.0000
     atom:   39    charge:    1.9148    magn:   -0.0003    constr:    0.0000
     atom:   40    charge:    1.7110    magn:    0.0293    constr:    0.0000
     atom:   41    charge:    1.7270    magn:   -0.0051    constr:    0.0000
     atom:   42    charge:    1.7141    magn:    0.0026    constr:    0.0000
     atom:   43    charge:    1.7183    magn:   -0.0041    constr:    0.0000
     atom:   44    charge:    1.7138    magn:    0.0066    constr:    0.0000
     atom:   45    charge:    1.7245    magn:   -0.0031    constr:    0.0000
     atom:   46    charge:    1.7138    magn:    0.0069    constr:    0.0000
     atom:   47    charge:    1.7183    magn:   -0.0042    constr:    0.0000
     atom:   48    charge:    1.7157    magn:    0.0095    constr:    0.0000
     atom:   49    charge:    1.7169    magn:   -0.0080    constr:    0.0000
     atom:   50    charge:    1.7146    magn:    0.0235    constr:    0.0000
     atom:   51    charge:    1.7169    magn:   -0.0078    constr:    0.0000
     atom:   52    charge:    1.7156    magn:    0.0090    constr:    0.0000

     total cpu time spent up to now is     2982.3 secs

     End of self-consistent calculation

 ------ SPIN UP ------------


          k = 0.0000 0.0000 0.0000 ( 87777 PWs)   bands (ev):

   -62.8570 -37.9426 -37.9395 -36.6249 -19.6445 -18.8029 -18.8002 -18.7316
   -18.6867 -18.6861 -18.2521 -16.9467 -16.9465 -16.9455 -16.8104 -16.8089
   -16.5264 -16.0935 -16.0933 -15.9992 -15.8448 -15.8446 -15.0937 -13.9057
   -13.9002 -13.8987 -13.8718 -13.8718 -13.1443 -12.9279 -12.9274 -12.9096
   -12.5164 -12.5160 -12.1230 -11.6563 -11.6560 -11.5314 -11.1502 -11.1501
   -10.1612  -9.3490  -9.3487  -9.2686  -9.1929  -9.1926  -9.1024  -9.0778
    -9.0776  -9.0616  -8.4739  -8.4736  -7.9052  -7.9047  -7.8700  -7.8108
    -7.6877  -7.2642  -7.2635  -6.9741  -6.9717  -6.9076  -6.7173  -6.7102
    -6.7076  -6.6832  -6.6023  -6.6021  -6.5560  -6.4453  -6.4443  -6.4006
    -6.3963  -6.3954  -6.3436  -6.3241  -5.2704  -5.2695  -5.1674  -5.1672
    -4.9558  -4.9555  -4.8447  -4.7564  -4.6292  -4.6184  -4.6174  -4.2534
    -3.9950  -3.9949  -3.7690  -3.7689  -3.6687  -3.6439  -3.5087  -3.5085
    -2.9093  -2.2700  -2.2699  -2.2367  -2.2354  -1.7580  -1.6909  -1.6908
    -0.5527  -0.2510  -0.2502   0.8338   1.0393   1.0715   1.0717   1.7816
     2.0406   2.0410   2.5984   2.8867   2.8869   2.9651   3.4407   3.4971
     3.5645   3.7293   3.7465   3.7843   3.8556   3.9924   3.9930

     occupation numbers 
     1.0000   1.0000   1.0000   1.0000   1.0000   1.0000   1.0000   1.0000
     1.0000   1.0000   1.0000   1.0000   1.0000   1.0000   1.0000   1.0000
     1.0000   1.0000   1.0000   1.0000   1.0000   1.0000   1.0000   1.0000
     1.0000   1.0000   1.0000   1.0000   1.0000   1.0000   1.0000   1.0000
     1.0000   1.0000   1.0000   1.0000   1.0000   1.0000   1.0000   1.0000
     1.0000   1.0000   1.0000   1.0000   1.0000   1.0000   1.0000   1.0000
     1.0000   1.0000   1.0000   1.0000   1.0000   1.0000   1.0000   1.0000
     1.0000   1.0000   1.0000   1.0000   1.0000   1.0000   1.0000   1.0000
     1.0000   1.0000   1.0000   1.0000   1.0000   1.0000   1.0000   1.0000
     1.0000   1.0000   1.0000   1.0000   1.0000   1.0000   1.0000   1.0000
     1.0000   1.0000   1.0000   1.0000   1.0000   1.0000   1.0000   1.0000
     1.0000   1.0000   1.0000   1.0000   1.0000   1.0000   1.0000   1.0000
     1.0000   1.0000   1.0000   1.0000   1.0000   1.0000   1.0000   1.0000
     1.0000   0.5215   0.4785   0.0000   0.0000   0.0000   0.0000   0.0000
     0.0000   0.0000   0.0000   0.0000   0.0000   0.0000   0.0000   0.0000
     0.0000   0.0000   0.0000   0.0000   0.0000   0.0000   0.0000

 ------ SPIN DOWN ----------


          k = 0.0000 0.0000 0.0000 ( 87777 PWs)   bands (ev):

   -62.6598 -37.7836 -37.7732 -36.3552 -19.6227 -18.7816 -18.7781 -18.7113
   -18.6703 -18.6693 -18.2202 -16.9302 -16.9280 -16.9264 -16.7823 -16.7802
   -16.5123 -16.0664 -16.0660 -15.9834 -15.8238 -15.8236 -15.0790 -13.8691
   -13.8686 -13.8679 -13.8597 -13.8570 -13.1475 -12.9173 -12.9166 -12.8941
   -12.5084 -12.5078 -12.1046 -11.6384 -11.6383 -11.5182 -11.1379 -11.1374
   -10.1467  -9.3322  -9.3316  -9.2556  -9.1755  -9.1750  -9.0943  -9.0636
    -9.0635  -9.0524  -8.4673  -8.4667  -7.8938  -7.8932  -7.8630  -7.7584
    -7.6792  -7.2553  -7.2547  -6.8972  -6.8932  -6.8872  -6.6942  -6.6749
    -6.6719  -6.6583  -6.5909  -6.5908  -6.5463  -6.4358  -6.4346  -6.3949
    -6.3896  -6.3890  -6.3355  -6.2472  -5.2622  -5.2612  -5.0841  -5.0805
    -4.9460  -4.9456  -4.8388  -4.7505  -4.5872  -4.5677  -4.5657  -4.2157
    -3.9446  -3.9427  -3.6949  -3.6944  -3.6224  -3.6139  -3.5022  -3.5019
    -2.8762  -2.2034  -2.2012  -2.1713  -2.1690  -1.6752  -1.6752  -1.6634
    -0.5468  -0.0280  -0.0189   0.9102   1.0926   1.0929   1.1166   1.8535
     2.1103   2.1126   2.6057   2.9579   2.9584   3.0060   3.4670   3.5035
     3.5713   3.7318   3.7484   3.7890   3.8921   4.0631   4.0653

     occupation numbers 
     1.0000   1.0000   1.0000   1.0000   1.0000   1.0000   1.0000   1.0000
     1.0000   1.0000   1.0000   1.0000   1.0000   1.0000   1.0000   1.0000
     1.0000   1.0000   1.0000   1.0000   1.0000   1.0000   1.0000   1.0000
     1.0000   1.0000   1.0000   1.0000   1.0000   1.0000   1.0000   1.0000
     1.0000   1.0000   1.0000   1.0000   1.0000   1.0000   1.0000   1.0000
     1.0000   1.0000   1.0000   1.0000   1.0000   1.0000   1.0000   1.0000
     1.0000   1.0000   1.0000   1.0000   1.0000   1.0000   1.0000   1.0000
     1.0000   1.0000   1.0000   1.0000   1.0000   1.0000   1.0000   1.0000
     1.0000   1.0000   1.0000   1.0000   1.0000   1.0000   1.0000   1.0000
     1.0000   1.0000   1.0000   1.0000   1.0000   1.0000   1.0000   1.0000
     1.0000   1.0000   1.0000   1.0000   1.0000   1.0000   1.0000   1.0000
     1.0000   1.0000   1.0000   1.0000   1.0000   1.0000   1.0000   1.0000
     1.0000   1.0000   1.0000   1.0000   1.0000   1.0000   1.0000   1.0000
     1.0000   0.0000   0.0000   0.0000   0.0000   0.0000   0.0000   0.0000
     0.0000   0.0000   0.0000   0.0000   0.0000   0.0000   0.0000   0.0000
     0.0000   0.0000   0.0000   0.0000   0.0000   0.0000   0.0000

     the Fermi energy is    -0.2487 ev

!    total energy              =    -757.33011485 Ry
     Harris-Foulkes estimate   =    -757.33011484 Ry
     estimated scf accuracy    <       0.00000006 Ry

     The total energy is the sum of the following terms:

     one-electron contribution =   -2568.93753659 Ry
     hartree contribution      =    1331.23211243 Ry
     xc contribution           =    -252.66398020 Ry
     ewald contribution        =     733.03961706 Ry
     smearing contrib. (-TS)   =      -0.00032756 Ry

     total magnetization       =     1.00 Bohr mag/cell
     absolute magnetization    =     1.54 Bohr mag/cell

     convergence has been achieved in  27 iterations

     Writing output data file distance-4.0.save/

     init_run     :     75.69s CPU     77.18s WALL (       1 calls)
     electrons    :   2852.09s CPU   2904.13s WALL (       1 calls)

     Called by init_run:
     wfcinit      :     43.15s CPU     43.53s WALL (       1 calls)
     wfcinit:atom :      0.06s CPU      0.10s WALL (       2 calls)
     wfcinit:wfcr :     42.70s CPU     42.98s WALL (       2 calls)
     potinit      :     12.81s CPU     13.33s WALL (       1 calls)
     hinit0       :     10.50s CPU     10.54s WALL (       1 calls)

     Called by electrons:
     c_bands      :   1856.05s CPU   1866.70s WALL (      27 calls)
     sum_band     :    578.79s CPU    595.44s WALL (      27 calls)
     v_of_rho     :    207.95s CPU    218.27s WALL (      28 calls)
     v_h          :      2.16s CPU      2.24s WALL (      28 calls)
     v_xc         :    205.78s CPU    216.03s WALL (      28 calls)
     newd         :    205.64s CPU    220.72s WALL (      28 calls)
     mix_rho      :     12.43s CPU     12.60s WALL (      27 calls)

     Called by c_bands:
     init_us_2    :      5.17s CPU      5.21s WALL (     110 calls)
     cegterg      :   1842.92s CPU   1853.50s WALL (      54 calls)

     Called by sum_band:
     sum_band:bec :      0.04s CPU      0.04s WALL (      54 calls)
     addusdens    :    355.34s CPU    370.54s WALL (      27 calls)

     Called by *egterg:
     h_psi        :    965.15s CPU    972.48s WALL (     244 calls)
     s_psi        :    318.30s CPU    318.51s WALL (     244 calls)
     g_psi        :      1.08s CPU      1.08s WALL (     188 calls)
     cdiaghg      :     18.35s CPU     18.37s WALL (     242 calls)
     cegterg:over :    235.32s CPU    235.46s WALL (     188 calls)
     cegterg:upda :    147.36s CPU    148.29s WALL (     188 calls)
     cegterg:last :    101.06s CPU    101.10s WALL (      55 calls)

     Called by h_psi:
     h_psi:pot    :    964.08s CPU    970.14s WALL (     244 calls)
     h_psi:calbec :    322.67s CPU    322.85s WALL (     244 calls)
     vloc_psi     :    322.51s CPU    328.27s WALL (     244 calls)
     add_vuspsi   :    318.89s CPU    319.02s WALL (     244 calls)

     General routines
     calbec       :    455.09s CPU    455.32s WALL (     298 calls)
     fft          :    117.65s CPU    121.92s WALL (    2094 calls)
     ffts         :      2.14s CPU      2.17s WALL (     110 calls)
     fftw         :    340.60s CPU    346.67s WALL (   40424 calls)
     interpolate  :      4.87s CPU      4.98s WALL (      56 calls)

     Parallel routines
     fft_scatt_xy :     83.48s CPU     84.48s WALL (   42628 calls)
     fft_scatt_yz :    153.48s CPU    161.13s WALL (   42628 calls)

     PWSCF        :  48m49.10s CPU  49m43.08s WALL


   This run was terminated on:   3:25: 1  23Aug2022            

=------------------------------------------------------------------------------=
   JOB DONE.
=------------------------------------------------------------------------------=
