
     Program PWSCF v.6.4.1 starts on 23Aug2022 at  7:42:28 

     This program is part of the open-source Quantum ESPRESSO suite
     for quantum simulation of materials; please cite
         "P. Giannozzi et al., J. Phys.:Condens. Matter 21 395502 (2009);
         "P. Giannozzi et al., J. Phys.:Condens. Matter 29 465901 (2017);
          URL http://www.quantum-espresso.org", 
     in publications or presentations arising from this work. More details at
     http://www.quantum-espresso.org/quote

     Parallel version (MPI), running on     6 processors

     MPI processes distributed on     1 nodes
     R & G space division:  proc/nbgrp/npool/nimage =       6
     Reading input from distance-2.0.in

     Current dimensions of program PWSCF are:
     Max number of different atomic species (ntypx) = 10
     Max number of k-points (npk) =  40000
     Max angular momentum in pseudopotentials (lmaxx) =  3

     IMPORTANT: XC functional enforced from input :
     Exchange-correlation      = RVV10 ( 1  4 13  4 3 0)
     Any further DFT definition will be discarded
     Please, verify this is what you really want

               file H.pbe-rrkjus.UPF: wavefunction(s)  1S renormalized
               file V.pbe-spnl-rrkjus_psl.1.0.0.UPF: wavefunction(s)  3P 3D renormalized

     Subspace diagonalization in iterative solution of the eigenvalue problem:
     a serial algorithm will be used


     Parallelization info
     --------------------
     sticks:   dense  smooth     PW     G-vecs:    dense   smooth      PW
     Min        3051    1746    432               270999   117096   14629
     Max        3053    1747    437               271001   117099   14630
     Sum       18313   10477   2611              1626001   702581   87777



     bravais-lattice index     =            4
     lattice parameter (alat)  =      23.2937  a.u.
     unit-cell volume          =    8879.8548 (a.u.)^3
     number of atoms/cell      =           52
     number of atomic types    =            3
     number of electrons       =       211.00
     number of Kohn-Sham states=          127
     kinetic-energy cutoff     =      70.0000  Ry
     charge density cutoff     =     490.0000  Ry
     convergence threshold     =      1.0E-06
     mixing beta               =       0.7000
     number of iterations used =            8  plain     mixing
     Exchange-correlation      = RVV10 ( 1  4 13  4 3 0)

     celldm(1)=  23.293684  celldm(2)=   0.000000  celldm(3)=   0.811261
     celldm(4)=   0.000000  celldm(5)=   0.000000  celldm(6)=   0.000000

     crystal axes: (cart. coord. in units of alat)
               a(1) = (   1.000000   0.000000   0.000000 )  
               a(2) = (  -0.500000   0.866025   0.000000 )  
               a(3) = (   0.000000   0.000000   0.811261 )  

     reciprocal axes: (cart. coord. in units 2 pi/alat)
               b(1) = (  1.000000  0.577350 -0.000000 )  
               b(2) = (  0.000000  1.154701  0.000000 )  
               b(3) = (  0.000000 -0.000000  1.232649 )  


     PseudoPot. # 1 for H  read from file:
     /home/cristian/Escritorio/Proyecto_Grafeno/pseudopotenciales/H.pbe-rrkjus.UPF
     MD5 check sum: 7cc9d459525c9a0585f487a71c3c9563
     Pseudo is Ultrasoft, Zval =  1.0
     Generated by new atomic code, or converted to UPF format
     Using radial grid of 1061 points,  2 beta functions with: 
                l(1) =   0
                l(2) =   0
     Q(r) pseudized with 0 coefficients 


     PseudoPot. # 2 for C  read from file:
     /home/cristian/Escritorio/Proyecto_Grafeno/pseudopotenciales/C.pbe-n-rrkjus_psl.1.0.0.UPF
     MD5 check sum: 1fdd950c42eb37d8afe3dd2f8d12311e
     Pseudo is Ultrasoft + core correction, Zval =  4.0
     Generated using "atomic" code by A. Dal Corso v.6.3MaX
     Using radial grid of 1073 points,  4 beta functions with: 
                l(1) =   0
                l(2) =   0
                l(3) =   1
                l(4) =   1
     Q(r) pseudized with 0 coefficients 


     PseudoPot. # 3 for V  read from file:
     /home/cristian/Escritorio/Proyecto_Grafeno/pseudopotenciales/V.pbe-spnl-rrkjus_psl.1.0.0.UPF
     MD5 check sum: 79b3eb63147daf0b665d9f1bcc691206
     Pseudo is Ultrasoft + core correction, Zval = 13.0
     Generated using "atomic" code by A. Dal Corso v.6.2.2
     Using radial grid of 1181 points,  6 beta functions with: 
                l(1) =   0
                l(2) =   0
                l(3) =   1
                l(4) =   1
                l(5) =   2
                l(6) =   2
     Q(r) pseudized with 0 coefficients 


     vdW kernel table read from file rVV10_kernel_table
     MD5 check sum: b8e2538accc0c0b3206b45ba4daaba6c

     atomic species   valence    mass     pseudopotential
        H              1.00     1.00794     H ( 1.00)
        C              4.00    12.01070     C ( 1.00)
        V             13.00    50.94150     V ( 1.00)

     Starting magnetic structure 
     atomic species   magnetization
        H            0.500
        C            0.300
        V            0.800

      2 Sym. Ops. (no inversion) found


                                    s                        frac. trans.

      isym =  1     identity                                     

 cryst.   s( 1) = (     1          0          0      )
                  (     0          1          0      )
                  (     0          0          1      )

 cart.    s( 1) = (  1.0000000  0.0000000  0.0000000 )
                  (  0.0000000  1.0000000  0.0000000 )
                  (  0.0000000  0.0000000  1.0000000 )


      isym =  2     inv. 180 deg rotation - cryst. axis [1,1,0]  

 cryst.   s( 2) = (     0         -1          0      )
                  (    -1          0          0      )
                  (     0          0          1      )

 cart.    s( 2) = (  0.5000000 -0.8660254  0.0000000 )
                  ( -0.8660254 -0.5000000  0.0000000 )
                  (  0.0000000  0.0000000  1.0000000 )


     point group C_s (m)    
     there are  2 classes
     the character table:

       E     s    
A'     1.00  1.00
A''    1.00 -1.00

     the symmetry operations in each class and the name of the first element:

     E        1
          identity                                               
     s        2
          inv. 180 deg rotation - cryst. axis [1,1,0]            

   Cartesian axes

     site n.     atom                  positions (alat units)
         1           H   tau(   1) = (   0.3000000   0.4041452   0.1622522  )
         2           H   tau(   2) = (   0.3000000   0.4041452   0.2232649  )
         3           C   tau(   3) = (   0.0000000   0.0000000   0.0000000  )
         4           C   tau(   4) = (   0.0000000   0.1154701   0.0000000  )
         5           C   tau(   5) = (  -0.1000000   0.1732051   0.0000000  )
         6           C   tau(   6) = (  -0.1000000   0.2886751   0.0000000  )
         7           C   tau(   7) = (  -0.2000000   0.3464102   0.0000000  )
         8           C   tau(   8) = (  -0.2000000   0.4618802   0.0000000  )
         9           C   tau(   9) = (  -0.3000000   0.5196152   0.0000000  )
        10           C   tau(  10) = (  -0.3000000   0.6350853   0.0000000  )
        11           C   tau(  11) = (  -0.4000000   0.6928203   0.0000000  )
        12           C   tau(  12) = (  -0.4000000   0.8082904   0.0000000  )
        13           C   tau(  13) = (   0.2000000   0.0000000   0.0000000  )
        14           C   tau(  14) = (   0.2000000   0.1154701   0.0000000  )
        15           C   tau(  15) = (   0.1000000   0.1732051   0.0000000  )
        16           C   tau(  16) = (   0.1000000   0.2886751   0.0000000  )
        17           C   tau(  17) = (   0.0000000   0.3464102   0.0000000  )
        18           C   tau(  18) = (   0.0000000   0.4618802   0.0000000  )
        19           C   tau(  19) = (  -0.1000000   0.5196152   0.0000000  )
        20           C   tau(  20) = (  -0.1000000   0.6350853   0.0000000  )
        21           C   tau(  21) = (  -0.2000000   0.6928203   0.0000000  )
        22           C   tau(  22) = (  -0.2000000   0.8082904   0.0000000  )
        23           C   tau(  23) = (   0.4000000   0.0000000   0.0000000  )
        24           C   tau(  24) = (   0.4000000   0.1154701   0.0000000  )
        25           C   tau(  25) = (   0.3000000   0.1732051   0.0000000  )
        26           C   tau(  26) = (   0.3000000   0.2886751   0.0000000  )
        27           C   tau(  27) = (   0.2000000   0.3464102   0.0000000  )
        28           V   tau(  28) = (   0.2000000   0.4618802   0.0000000  )
        29           C   tau(  29) = (   0.1000000   0.5196152   0.0000000  )
        30           C   tau(  30) = (   0.1000000   0.6350853   0.0000000  )
        31           C   tau(  31) = (   0.0000000   0.6928203   0.0000000  )
        32           C   tau(  32) = (   0.0000000   0.8082904   0.0000000  )
        33           C   tau(  33) = (   0.6000000   0.0000000   0.0000000  )
        34           C   tau(  34) = (   0.6000000   0.1154701   0.0000000  )
        35           C   tau(  35) = (   0.5000000   0.1732051   0.0000000  )
        36           C   tau(  36) = (   0.5000000   0.2886751   0.0000000  )
        37           C   tau(  37) = (   0.4000000   0.3464102   0.0000000  )
        38           C   tau(  38) = (   0.4000000   0.4618802   0.0000000  )
        39           C   tau(  39) = (   0.3000000   0.5196152   0.0000000  )
        40           C   tau(  40) = (   0.3000000   0.6350853   0.0000000  )
        41           C   tau(  41) = (   0.2000000   0.6928203   0.0000000  )
        42           C   tau(  42) = (   0.2000000   0.8082904   0.0000000  )
        43           C   tau(  43) = (   0.8000000   0.0000000   0.0000000  )
        44           C   tau(  44) = (   0.8000000   0.1154701   0.0000000  )
        45           C   tau(  45) = (   0.7000000   0.1732051   0.0000000  )
        46           C   tau(  46) = (   0.7000000   0.2886751   0.0000000  )
        47           C   tau(  47) = (   0.6000000   0.3464102   0.0000000  )
        48           C   tau(  48) = (   0.6000000   0.4618802   0.0000000  )
        49           C   tau(  49) = (   0.5000000   0.5196152   0.0000000  )
        50           C   tau(  50) = (   0.5000000   0.6350853   0.0000000  )
        51           C   tau(  51) = (   0.4000000   0.6928203   0.0000000  )
        52           C   tau(  52) = (   0.4000000   0.8082904   0.0000000  )

   Crystallographic axes

     site n.     atom                  positions (cryst. coord.)
         1           H   tau(   1) = (  0.5333333  0.4666667  0.2000000  )
         2           H   tau(   2) = (  0.5333333  0.4666667  0.2752072  )
         3           C   tau(   3) = (  0.0000000  0.0000000  0.0000000  )
         4           C   tau(   4) = (  0.0666667  0.1333333  0.0000000  )
         5           C   tau(   5) = (  0.0000000  0.2000000  0.0000000  )
         6           C   tau(   6) = (  0.0666667  0.3333333  0.0000000  )
         7           C   tau(   7) = (  0.0000000  0.4000000  0.0000000  )
         8           C   tau(   8) = (  0.0666667  0.5333333  0.0000000  )
         9           C   tau(   9) = (  0.0000000  0.6000000  0.0000000  )
        10           C   tau(  10) = (  0.0666667  0.7333333  0.0000000  )
        11           C   tau(  11) = (  0.0000000  0.8000000  0.0000000  )
        12           C   tau(  12) = (  0.0666667  0.9333333  0.0000000  )
        13           C   tau(  13) = (  0.2000000  0.0000000  0.0000000  )
        14           C   tau(  14) = (  0.2666667  0.1333333  0.0000000  )
        15           C   tau(  15) = (  0.2000000  0.2000000  0.0000000  )
        16           C   tau(  16) = (  0.2666667  0.3333333  0.0000000  )
        17           C   tau(  17) = (  0.2000000  0.4000000  0.0000000  )
        18           C   tau(  18) = (  0.2666667  0.5333333  0.0000000  )
        19           C   tau(  19) = (  0.2000000  0.6000000  0.0000000  )
        20           C   tau(  20) = (  0.2666667  0.7333333  0.0000000  )
        21           C   tau(  21) = (  0.2000000  0.8000000  0.0000000  )
        22           C   tau(  22) = (  0.2666667  0.9333333  0.0000000  )
        23           C   tau(  23) = (  0.4000000  0.0000000  0.0000000  )
        24           C   tau(  24) = (  0.4666667  0.1333333  0.0000000  )
        25           C   tau(  25) = (  0.4000000  0.2000000  0.0000000  )
        26           C   tau(  26) = (  0.4666667  0.3333333  0.0000000  )
        27           C   tau(  27) = (  0.4000000  0.4000000  0.0000000  )
        28           V   tau(  28) = (  0.4666667  0.5333333  0.0000000  )
        29           C   tau(  29) = (  0.4000000  0.6000000  0.0000000  )
        30           C   tau(  30) = (  0.4666667  0.7333333  0.0000000  )
        31           C   tau(  31) = (  0.4000000  0.8000000  0.0000000  )
        32           C   tau(  32) = (  0.4666667  0.9333333  0.0000000  )
        33           C   tau(  33) = (  0.6000000  0.0000000  0.0000000  )
        34           C   tau(  34) = (  0.6666667  0.1333333  0.0000000  )
        35           C   tau(  35) = (  0.6000000  0.2000000  0.0000000  )
        36           C   tau(  36) = (  0.6666667  0.3333333  0.0000000  )
        37           C   tau(  37) = (  0.6000000  0.4000000  0.0000000  )
        38           C   tau(  38) = (  0.6666667  0.5333333  0.0000000  )
        39           C   tau(  39) = (  0.6000000  0.6000000  0.0000000  )
        40           C   tau(  40) = (  0.6666667  0.7333333  0.0000000  )
        41           C   tau(  41) = (  0.6000000  0.8000000  0.0000000  )
        42           C   tau(  42) = (  0.6666667  0.9333333  0.0000000  )
        43           C   tau(  43) = (  0.8000000  0.0000000  0.0000000  )
        44           C   tau(  44) = (  0.8666667  0.1333333  0.0000000  )
        45           C   tau(  45) = (  0.8000000  0.2000000  0.0000000  )
        46           C   tau(  46) = (  0.8666667  0.3333333  0.0000000  )
        47           C   tau(  47) = (  0.8000000  0.4000000  0.0000000  )
        48           C   tau(  48) = (  0.8666667  0.5333333  0.0000000  )
        49           C   tau(  49) = (  0.8000000  0.6000000  0.0000000  )
        50           C   tau(  50) = (  0.8666667  0.7333333  0.0000000  )
        51           C   tau(  51) = (  0.8000000  0.8000000  0.0000000  )
        52           C   tau(  52) = (  0.8666667  0.9333333  0.0000000  )

     number of k points=     1  Marzari-Vanderbilt smearing, width (Ry)=  0.0010
                       cart. coord. in units 2pi/alat
        k(    1) = (   0.0000000   0.0000000   0.0000000), wk =   1.0000000

                       cryst. coord.
        k(    1) = (   0.0000000   0.0000000   0.0000000), wk =   1.0000000

     Dense  grid:  1626001 G-vectors     FFT dimensions: ( 180, 180, 135)

     Smooth grid:   702581 G-vectors     FFT dimensions: ( 125, 125, 108)

     Dynamical RAM for                 wfc:      28.36 MB

     Dynamical RAM for     wfc (w. buffer):      85.09 MB

     Dynamical RAM for           str. fact:      12.41 MB

     Dynamical RAM for           local pot:       0.00 MB

     Dynamical RAM for          nlocal pot:      92.46 MB

     Dynamical RAM for                qrad:      19.73 MB

     Dynamical RAM for          rho,v,vnew:      58.92 MB

     Dynamical RAM for               rhoin:      19.64 MB

     Dynamical RAM for            rho*nmix:     132.32 MB

     Dynamical RAM for           G-vectors:      16.40 MB

     Dynamical RAM for          h,s,v(r/c):      11.81 MB

     Dynamical RAM for          <psi|beta>:       0.80 MB

     Dynamical RAM for                 psi:     113.46 MB

     Dynamical RAM for                hpsi:     113.46 MB

     Dynamical RAM for                spsi:     113.46 MB

     Dynamical RAM for      wfcinit/wfcrot:      93.90 MB

     Dynamical RAM for           addusdens:     975.89 MB

     Estimated static dynamical RAM per process >     487.63 MB

     Estimated max dynamical RAM per process >       1.43 GB

     Estimated total dynamical RAM >       8.58 GB
     Generating pointlists ...
     new r_m :   0.0252 (alat units)  0.5862 (a.u.) for type    1
     new r_m :   0.0476 (alat units)  1.1095 (a.u.) for type    2
     new r_m :   0.0476 (alat units)  1.1095 (a.u.) for type    3

     Check: negative core charge=   -0.000002

     Initial potential from superposition of free atoms

     starting charge  210.80465, renormalised to  211.00000

     negative rho (up, down):  1.348E-04 1.797E-02


---------------------------------------------------------------------------------
Carrying out rVV10 run using the following parameters:
Nqs =      20    Nr_points =    1024   r_max =   100.000
b_value =  6.30000    beta =  0.00901
     q_mesh =  0.00010000  0.00030000  0.00058939  0.00100810
               0.00161396  0.00249058  0.00375900  0.00559430
               0.00824984  0.01209221  0.01765183  0.02569619
               0.03733578  0.05417739  0.07854596  0.11380545
               0.16482331  0.23864234  0.34545298  0.50000000

Gradients computed in Reciprocal space

---------------------------------------------------------------------------------


     Starting wfcs are  208 randomized atomic wfcs

     total cpu time spent up to now is       78.2 secs

     Self-consistent Calculation

     iteration #  1     ecut=    70.00 Ry     beta= 0.70
     Davidson diagonalization with overlap
     ethr =  1.00E-02,  avg # of iterations =  2.5

     negative rho (up, down):  2.838E-04 1.479E-02

     total cpu time spent up to now is      208.0 secs

     total energy              =    -752.68832927 Ry
     Harris-Foulkes estimate   =    -757.02466164 Ry
     estimated scf accuracy    <      12.23732064 Ry

     total magnetization       =     5.00 Bohr mag/cell
     absolute magnetization    =     6.06 Bohr mag/cell

     iteration #  2     ecut=    70.00 Ry     beta= 0.70
     Davidson diagonalization with overlap
     ethr =  5.80E-03,  avg # of iterations =  7.0

     negative rho (up, down):  5.024E-03 1.838E-01

     total cpu time spent up to now is      331.6 secs

     total energy              =    -745.28477602 Ry
     Harris-Foulkes estimate   =    -768.66239757 Ry
     estimated scf accuracy    <      82.64767838 Ry

     total magnetization       =     5.00 Bohr mag/cell
     absolute magnetization    =     5.19 Bohr mag/cell

     iteration #  3     ecut=    70.00 Ry     beta= 0.70
     Davidson diagonalization with overlap
     ethr =  5.80E-03,  avg # of iterations =  5.0

     negative rho (up, down):  1.475E-03 2.536E-02

     total cpu time spent up to now is      503.2 secs

     total energy              =    -755.70475563 Ry
     Harris-Foulkes estimate   =    -758.11193422 Ry
     estimated scf accuracy    <      10.84797472 Ry

     total magnetization       =     5.00 Bohr mag/cell
     absolute magnetization    =     5.82 Bohr mag/cell

     iteration #  4     ecut=    70.00 Ry     beta= 0.70
     Davidson diagonalization with overlap
     ethr =  5.14E-03,  avg # of iterations =  3.0

     negative rho (up, down):  5.004E-02 2.408E-02

     total cpu time spent up to now is      599.9 secs

     total energy              =    -756.92545332 Ry
     Harris-Foulkes estimate   =    -757.55982535 Ry
     estimated scf accuracy    <       1.81626475 Ry

     total magnetization       =     1.00 Bohr mag/cell
     absolute magnetization    =     1.77 Bohr mag/cell

     iteration #  5     ecut=    70.00 Ry     beta= 0.70
     Davidson diagonalization with overlap
     ethr =  8.61E-04,  avg # of iterations =  6.5

     negative rho (up, down):  5.643E-02 1.899E-02

     total cpu time spent up to now is      711.5 secs

     total energy              =    -757.18388066 Ry
     Harris-Foulkes estimate   =    -757.33881321 Ry
     estimated scf accuracy    <       0.51265182 Ry

     total magnetization       =     1.00 Bohr mag/cell
     absolute magnetization    =     1.57 Bohr mag/cell

     iteration #  6     ecut=    70.00 Ry     beta= 0.70
     Davidson diagonalization with overlap
     ethr =  2.43E-04,  avg # of iterations =  3.5

     negative rho (up, down):  2.795E-02 1.969E-02

     total cpu time spent up to now is      816.2 secs

     total energy              =    -757.29075757 Ry
     Harris-Foulkes estimate   =    -757.30169152 Ry
     estimated scf accuracy    <       0.14766198 Ry

     total magnetization       =     1.00 Bohr mag/cell
     absolute magnetization    =     1.47 Bohr mag/cell

     iteration #  7     ecut=    70.00 Ry     beta= 0.70
     Davidson diagonalization with overlap
     ethr =  7.00E-05,  avg # of iterations =  3.5

     negative rho (up, down):  3.448E-02 1.417E-02

     total cpu time spent up to now is      920.2 secs

     total energy              =    -757.31035937 Ry
     Harris-Foulkes estimate   =    -757.32112190 Ry
     estimated scf accuracy    <       0.04832679 Ry

     total magnetization       =     1.00 Bohr mag/cell
     absolute magnetization    =     1.38 Bohr mag/cell

     iteration #  8     ecut=    70.00 Ry     beta= 0.70
     Davidson diagonalization with overlap
     ethr =  2.29E-05,  avg # of iterations =  5.5

     negative rho (up, down):  3.170E-02 2.681E-02

     total cpu time spent up to now is     1029.6 secs

     total energy              =    -757.31891227 Ry
     Harris-Foulkes estimate   =    -757.32416774 Ry
     estimated scf accuracy    <       0.03217120 Ry

     total magnetization       =     1.00 Bohr mag/cell
     absolute magnetization    =     1.39 Bohr mag/cell

     iteration #  9     ecut=    70.00 Ry     beta= 0.70
     Davidson diagonalization with overlap
     ethr =  1.52E-05,  avg # of iterations =  5.5

     negative rho (up, down):  3.439E-02 2.358E-02

     total cpu time spent up to now is     1133.0 secs

     total energy              =    -757.32280629 Ry
     Harris-Foulkes estimate   =    -757.32420407 Ry
     estimated scf accuracy    <       0.01278536 Ry

     total magnetization       =     1.00 Bohr mag/cell
     absolute magnetization    =     1.40 Bohr mag/cell

     iteration # 10     ecut=    70.00 Ry     beta= 0.70
     Davidson diagonalization with overlap
     ethr =  6.06E-06,  avg # of iterations =  3.0

     negative rho (up, down):  3.487E-02 1.701E-02

     total cpu time spent up to now is     1228.8 secs

     total energy              =    -757.32403426 Ry
     Harris-Foulkes estimate   =    -757.32421083 Ry
     estimated scf accuracy    <       0.00303995 Ry

     total magnetization       =     1.00 Bohr mag/cell
     absolute magnetization    =     1.41 Bohr mag/cell

     iteration # 11     ecut=    70.00 Ry     beta= 0.70
     Davidson diagonalization with overlap
     ethr =  1.44E-06,  avg # of iterations =  3.0

     negative rho (up, down):  3.342E-02 1.197E-02

     total cpu time spent up to now is     1327.3 secs

     total energy              =    -757.32535688 Ry
     Harris-Foulkes estimate   =    -757.32443272 Ry
     estimated scf accuracy    <       0.00046992 Ry

     total magnetization       =     1.00 Bohr mag/cell
     absolute magnetization    =     1.43 Bohr mag/cell

     iteration # 12     ecut=    70.00 Ry     beta= 0.70
     Davidson diagonalization with overlap
     ethr =  2.23E-07,  avg # of iterations =  4.5

     negative rho (up, down):  3.386E-02 4.390E-03

     total cpu time spent up to now is     1436.3 secs

     total energy              =    -757.32559828 Ry
     Harris-Foulkes estimate   =    -757.32547326 Ry
     estimated scf accuracy    <       0.00011242 Ry

     total magnetization       =     1.00 Bohr mag/cell
     absolute magnetization    =     1.45 Bohr mag/cell

     iteration # 13     ecut=    70.00 Ry     beta= 0.70
     Davidson diagonalization with overlap
     ethr =  5.33E-08,  avg # of iterations =  3.0

     negative rho (up, down):  3.411E-02 4.046E-03

     total cpu time spent up to now is     1544.0 secs

     total energy              =    -757.32563118 Ry
     Harris-Foulkes estimate   =    -757.32563332 Ry
     estimated scf accuracy    <       0.00006487 Ry

     total magnetization       =     1.00 Bohr mag/cell
     absolute magnetization    =     1.47 Bohr mag/cell

     iteration # 14     ecut=    70.00 Ry     beta= 0.70
     Davidson diagonalization with overlap
     ethr =  3.07E-08,  avg # of iterations =  2.5

     negative rho (up, down):  3.423E-02 4.179E-03

     total cpu time spent up to now is     1640.3 secs

     total energy              =    -757.32563645 Ry
     Harris-Foulkes estimate   =    -757.32563832 Ry
     estimated scf accuracy    <       0.00004056 Ry

     total magnetization       =     1.00 Bohr mag/cell
     absolute magnetization    =     1.49 Bohr mag/cell

     iteration # 15     ecut=    70.00 Ry     beta= 0.70
     Davidson diagonalization with overlap
     ethr =  1.92E-08,  avg # of iterations =  2.0

     negative rho (up, down):  3.427E-02 3.819E-03

     total cpu time spent up to now is     1734.8 secs

     total energy              =    -757.32563919 Ry
     Harris-Foulkes estimate   =    -757.32563842 Ry
     estimated scf accuracy    <       0.00003503 Ry

     total magnetization       =     1.00 Bohr mag/cell
     absolute magnetization    =     1.50 Bohr mag/cell

     iteration # 16     ecut=    70.00 Ry     beta= 0.70
     Davidson diagonalization with overlap
     ethr =  1.66E-08,  avg # of iterations =  1.0

     negative rho (up, down):  3.425E-02 2.419E-03

     total cpu time spent up to now is     1827.9 secs

     total energy              =    -757.32564319 Ry
     Harris-Foulkes estimate   =    -757.32564034 Ry
     estimated scf accuracy    <       0.00000628 Ry

     total magnetization       =     1.00 Bohr mag/cell
     absolute magnetization    =     1.50 Bohr mag/cell

     iteration # 17     ecut=    70.00 Ry     beta= 0.70
     Davidson diagonalization with overlap
     ethr =  2.97E-09,  avg # of iterations =  3.0

     negative rho (up, down):  3.431E-02 3.400E-03

     total cpu time spent up to now is     1935.2 secs

     total energy              =    -757.32564167 Ry
     Harris-Foulkes estimate   =    -757.32564528 Ry
     estimated scf accuracy    <       0.00002177 Ry

     total magnetization       =     1.00 Bohr mag/cell
     absolute magnetization    =     1.52 Bohr mag/cell

     iteration # 18     ecut=    70.00 Ry     beta= 0.70
     Davidson diagonalization with overlap
     ethr =  2.97E-09,  avg # of iterations =  2.5

     negative rho (up, down):  3.425E-02 3.074E-03

     total cpu time spent up to now is     2031.0 secs

     total energy              =    -757.32564553 Ry
     Harris-Foulkes estimate   =    -757.32564223 Ry
     estimated scf accuracy    <       0.00002707 Ry

     total magnetization       =     1.00 Bohr mag/cell
     absolute magnetization    =     1.52 Bohr mag/cell

     iteration # 19     ecut=    70.00 Ry     beta= 0.70
     Davidson diagonalization with overlap
     ethr =  2.97E-09,  avg # of iterations =  3.0

     negative rho (up, down):  3.421E-02 3.352E-03

     total cpu time spent up to now is     2139.8 secs

     total energy              =    -757.32564738 Ry
     Harris-Foulkes estimate   =    -757.32564753 Ry
     estimated scf accuracy    <       0.00000989 Ry

     total magnetization       =     1.00 Bohr mag/cell
     absolute magnetization    =     1.53 Bohr mag/cell

     iteration # 20     ecut=    70.00 Ry     beta= 0.70
     Davidson diagonalization with overlap
     ethr =  2.97E-09,  avg # of iterations =  2.0

     negative rho (up, down):  3.423E-02 3.291E-03

     total cpu time spent up to now is     2235.2 secs

     total energy              =    -757.32564797 Ry
     Harris-Foulkes estimate   =    -757.32564810 Ry
     estimated scf accuracy    <       0.00001165 Ry

     total magnetization       =     1.00 Bohr mag/cell
     absolute magnetization    =     1.54 Bohr mag/cell

     iteration # 21     ecut=    70.00 Ry     beta= 0.70
     Davidson diagonalization with overlap
     ethr =  2.97E-09,  avg # of iterations =  1.5

     negative rho (up, down):  3.426E-02 3.604E-03

     total cpu time spent up to now is     2329.5 secs

     total energy              =    -757.32564652 Ry
     Harris-Foulkes estimate   =    -757.32564828 Ry
     estimated scf accuracy    <       0.00000682 Ry

     total magnetization       =     1.00 Bohr mag/cell
     absolute magnetization    =     1.54 Bohr mag/cell

     iteration # 22     ecut=    70.00 Ry     beta= 0.70
     Davidson diagonalization with overlap
     ethr =  2.97E-09,  avg # of iterations =  3.0

     negative rho (up, down):  3.424E-02 2.201E-03

     total cpu time spent up to now is     2424.8 secs

     total energy              =    -757.32564836 Ry
     Harris-Foulkes estimate   =    -757.32564707 Ry
     estimated scf accuracy    <       0.00000174 Ry

     total magnetization       =     1.00 Bohr mag/cell
     absolute magnetization    =     1.55 Bohr mag/cell

     iteration # 23     ecut=    70.00 Ry     beta= 0.70
     Davidson diagonalization with overlap
     ethr =  8.23E-10,  avg # of iterations =  3.0

     negative rho (up, down):  3.423E-02 2.126E-03

     total cpu time spent up to now is     2521.8 secs

     total energy              =    -757.32564873 Ry
     Harris-Foulkes estimate   =    -757.32564858 Ry
     estimated scf accuracy    <       0.00000102 Ry

     total magnetization       =     1.00 Bohr mag/cell
     absolute magnetization    =     1.54 Bohr mag/cell

     iteration # 24     ecut=    70.00 Ry     beta= 0.70
     Davidson diagonalization with overlap
     ethr =  4.83E-10,  avg # of iterations =  2.5

     negative rho (up, down):  3.423E-02 2.094E-03

     total cpu time spent up to now is     2619.2 secs

     total energy              =    -757.32564873 Ry
     Harris-Foulkes estimate   =    -757.32564887 Ry
     estimated scf accuracy    <       0.00000235 Ry

     total magnetization       =     1.00 Bohr mag/cell
     absolute magnetization    =     1.54 Bohr mag/cell

     iteration # 25     ecut=    70.00 Ry     beta= 0.70
     Davidson diagonalization with overlap
     ethr =  4.83E-10,  avg # of iterations =  3.0

     negative rho (up, down):  3.423E-02 2.101E-03

     total cpu time spent up to now is     2728.7 secs

     total energy              =    -757.32564852 Ry
     Harris-Foulkes estimate   =    -757.32564903 Ry
     estimated scf accuracy    <       0.00000166 Ry

     total magnetization       =     1.00 Bohr mag/cell
     absolute magnetization    =     1.54 Bohr mag/cell

     iteration # 26     ecut=    70.00 Ry     beta= 0.70
     Davidson diagonalization with overlap
     ethr =  4.83E-10,  avg # of iterations =  3.0

     negative rho (up, down):  3.423E-02 2.098E-03

     Magnetic moment per site:
     atom:    1    charge:    0.2132    magn:   -0.0000    constr:    0.0000
     atom:    2    charge:    0.2109    magn:    0.0001    constr:    0.0000
     atom:    3    charge:    1.7174    magn:   -0.0072    constr:    0.0000
     atom:    4    charge:    1.7159    magn:    0.0106    constr:    0.0000
     atom:    5    charge:    1.7181    magn:   -0.0043    constr:    0.0000
     atom:    6    charge:    1.7141    magn:    0.0026    constr:    0.0000
     atom:    7    charge:    1.7184    magn:   -0.0041    constr:    0.0000
     atom:    8    charge:    1.7155    magn:    0.0086    constr:    0.0000
     atom:    9    charge:    1.7178    magn:   -0.0065    constr:    0.0000
     atom:   10    charge:    1.7140    magn:    0.0283    constr:    0.0000
     atom:   11    charge:    1.7185    magn:   -0.0089    constr:    0.0000
     atom:   12    charge:    1.7153    magn:    0.0359    constr:    0.0000
     atom:   13    charge:    1.7185    magn:   -0.0089    constr:    0.0000
     atom:   14    charge:    1.7142    magn:    0.0212    constr:    0.0000
     atom:   15    charge:    1.7168    magn:   -0.0080    constr:    0.0000
     atom:   16    charge:    1.7112    magn:    0.0315    constr:    0.0000
     atom:   17    charge:    1.7268    magn:   -0.0056    constr:    0.0000
     atom:   18    charge:    1.7114    magn:    0.0332    constr:    0.0000
     atom:   19    charge:    1.7168    magn:   -0.0085    constr:    0.0000
     atom:   20    charge:    1.7149    magn:    0.0268    constr:    0.0000
     atom:   21    charge:    1.7187    magn:   -0.0088    constr:    0.0000
     atom:   22    charge:    1.7140    magn:    0.0283    constr:    0.0000
     atom:   23    charge:    1.7178    magn:   -0.0065    constr:    0.0000
     atom:   24    charge:    1.7157    magn:    0.0088    constr:    0.0000
     atom:   25    charge:    1.7169    magn:   -0.0071    constr:    0.0000
     atom:   26    charge:    1.7115    magn:    0.0242    constr:    0.0000
     atom:   27    charge:    1.9154    magn:   -0.0008    constr:    0.0000
     atom:   28    charge:    7.8611    magn:    0.1020    constr:    0.0000
     atom:   29    charge:    1.9145    magn:    0.0003    constr:    0.0000
     atom:   30    charge:    1.7114    magn:    0.0332    constr:    0.0000
     atom:   31    charge:    1.7168    magn:   -0.0085    constr:    0.0000
     atom:   32    charge:    1.7155    magn:    0.0086    constr:    0.0000
     atom:   33    charge:    1.7184    magn:   -0.0041    constr:    0.0000
     atom:   34    charge:    1.7138    magn:    0.0063    constr:    0.0000
     atom:   35    charge:    1.7183    magn:   -0.0040    constr:    0.0000
     atom:   36    charge:    1.7140    magn:    0.0026    constr:    0.0000
     atom:   37    charge:    1.7279    magn:   -0.0044    constr:    0.0000
     atom:   38    charge:    1.7115    magn:    0.0242    constr:    0.0000
     atom:   39    charge:    1.9154    magn:   -0.0008    constr:    0.0000
     atom:   40    charge:    1.7112    magn:    0.0315    constr:    0.0000
     atom:   41    charge:    1.7268    magn:   -0.0056    constr:    0.0000
     atom:   42    charge:    1.7141    magn:    0.0026    constr:    0.0000
     atom:   43    charge:    1.7181    magn:   -0.0043    constr:    0.0000
     atom:   44    charge:    1.7140    magn:    0.0077    constr:    0.0000
     atom:   45    charge:    1.7244    magn:   -0.0030    constr:    0.0000
     atom:   46    charge:    1.7138    magn:    0.0063    constr:    0.0000
     atom:   47    charge:    1.7183    magn:   -0.0040    constr:    0.0000
     atom:   48    charge:    1.7157    magn:    0.0088    constr:    0.0000
     atom:   49    charge:    1.7169    magn:   -0.0071    constr:    0.0000
     atom:   50    charge:    1.7142    magn:    0.0212    constr:    0.0000
     atom:   51    charge:    1.7168    magn:   -0.0080    constr:    0.0000
     atom:   52    charge:    1.7159    magn:    0.0106    constr:    0.0000

     total cpu time spent up to now is     2849.4 secs

     End of self-consistent calculation

 ------ SPIN UP ------------


          k = 0.0000 0.0000 0.0000 ( 87777 PWs)   bands (ev):

   -62.8465 -37.9375 -37.9275 -36.6117 -19.6426 -18.8048 -18.7921 -18.7308
   -18.6906 -18.6794 -18.2509 -16.9460 -16.9454 -16.9414 -16.8089 -16.8064
   -16.5256 -16.0920 -16.0900 -15.9973 -15.8450 -15.8410 -15.0930 -13.9035
   -13.8990 -13.8924 -13.8700 -13.8685 -13.1421 -12.9273 -12.9252 -12.9073
   -12.5164 -12.5133 -12.1213 -11.6554 -11.6525 -11.5300 -11.1505 -11.1465
   -10.1614  -9.3473  -9.3464  -9.2652  -9.1918  -9.1902  -9.1000  -9.0767
    -9.0746  -9.0600  -8.4735  -8.4716  -7.9659  -7.9009  -7.8991  -7.8594
    -7.6841  -7.5338  -7.2593  -7.2565  -6.9725  -6.9060  -6.8304  -6.7078
    -6.7063  -6.6276  -6.6009  -6.5983  -6.5520  -6.4459  -6.4382  -6.3991
    -6.3950  -6.3910  -6.3420  -6.0845  -5.2690  -5.2651  -5.1708  -5.1013
    -4.9538  -4.9529  -4.8414  -4.7538  -4.6277  -4.6152  -4.5966  -4.2282
    -3.9956  -3.9915  -3.7663  -3.7547  -3.6639  -3.6331  -3.5067  -3.5062
    -2.8826  -2.2742  -2.2674  -2.2307  -2.2226  -1.7577  -1.6910  -1.6872
    -0.5506  -0.2524  -0.2491   1.0045   1.0376   1.0761   1.0783   1.7885
     2.0373   2.0418   2.5274   2.8813   2.8898   2.9598   3.5097   3.5744
     3.6551   3.7344   3.7470   3.7869   3.8801   3.9956   3.9972

     occupation numbers 
     1.0000   1.0000   1.0000   1.0000   1.0000   1.0000   1.0000   1.0000
     1.0000   1.0000   1.0000   1.0000   1.0000   1.0000   1.0000   1.0000
     1.0000   1.0000   1.0000   1.0000   1.0000   1.0000   1.0000   1.0000
     1.0000   1.0000   1.0000   1.0000   1.0000   1.0000   1.0000   1.0000
     1.0000   1.0000   1.0000   1.0000   1.0000   1.0000   1.0000   1.0000
     1.0000   1.0000   1.0000   1.0000   1.0000   1.0000   1.0000   1.0000
     1.0000   1.0000   1.0000   1.0000   1.0000   1.0000   1.0000   1.0000
     1.0000   1.0000   1.0000   1.0000   1.0000   1.0000   1.0000   1.0000
     1.0000   1.0000   1.0000   1.0000   1.0000   1.0000   1.0000   1.0000
     1.0000   1.0000   1.0000   1.0000   1.0000   1.0000   1.0000   1.0000
     1.0000   1.0000   1.0000   1.0000   1.0000   1.0000   1.0000   1.0000
     1.0000   1.0000   1.0000   1.0000   1.0000   1.0000   1.0000   1.0000
     1.0000   1.0000   1.0000   1.0000   1.0000   1.0000   1.0000   1.0000
     1.0000   0.5893   0.4107   0.0000   0.0000   0.0000   0.0000   0.0000
     0.0000   0.0000   0.0000   0.0000   0.0000   0.0000   0.0000   0.0000
     0.0000   0.0000   0.0000   0.0000   0.0000   0.0000   0.0000

 ------ SPIN DOWN ----------


          k = 0.0000 0.0000 0.0000 ( 87777 PWs)   bands (ev):

   -62.6496 -37.7905 -37.7496 -36.3425 -19.6209 -18.7851 -18.7687 -18.7106
   -18.6747 -18.6621 -18.2190 -16.9305 -16.9255 -16.9232 -16.7818 -16.7772
   -16.5114 -16.0640 -16.0637 -15.9814 -15.8239 -15.8201 -15.0783 -13.8699
   -13.8675 -13.8660 -13.8571 -13.8472 -13.1453 -12.9163 -12.9150 -12.8917
   -12.5079 -12.5055 -12.1029 -11.6370 -11.6353 -11.5169 -11.1373 -11.1348
   -10.1468  -9.3301  -9.3296  -9.2523  -9.1740  -9.1734  -9.0920  -9.0619
    -9.0610  -9.0507  -8.4662  -8.4653  -7.9342  -7.8892  -7.8851  -7.8419
    -7.6756  -7.4961  -7.2506  -7.2460  -6.8979  -6.8848  -6.7622  -6.6749
    -6.6618  -6.5948  -6.5884  -6.5872  -6.5424  -6.4366  -6.4285  -6.3938
    -6.3878  -6.3843  -6.3337  -6.0188  -5.2611  -5.2564  -5.0936  -5.0080
    -4.9438  -4.9432  -4.8356  -4.7478  -4.5867  -4.5654  -4.5445  -4.1916
    -3.9484  -3.9364  -3.6933  -3.6806  -3.6173  -3.6031  -3.5004  -3.4993
    -2.8476  -2.2048  -2.2021  -2.1670  -2.1547  -1.6749  -1.6748  -1.6606
    -0.5455  -0.0438  -0.0049   1.0606   1.0949   1.1163   1.1212   1.8589
     2.1063   2.1128   2.5329   2.9501   2.9604   3.0026   3.5159   3.5951
     3.6759   3.7371   3.7485   3.7943   3.9059   4.0610   4.1735

     occupation numbers 
     1.0000   1.0000   1.0000   1.0000   1.0000   1.0000   1.0000   1.0000
     1.0000   1.0000   1.0000   1.0000   1.0000   1.0000   1.0000   1.0000
     1.0000   1.0000   1.0000   1.0000   1.0000   1.0000   1.0000   1.0000
     1.0000   1.0000   1.0000   1.0000   1.0000   1.0000   1.0000   1.0000
     1.0000   1.0000   1.0000   1.0000   1.0000   1.0000   1.0000   1.0000
     1.0000   1.0000   1.0000   1.0000   1.0000   1.0000   1.0000   1.0000
     1.0000   1.0000   1.0000   1.0000   1.0000   1.0000   1.0000   1.0000
     1.0000   1.0000   1.0000   1.0000   1.0000   1.0000   1.0000   1.0000
     1.0000   1.0000   1.0000   1.0000   1.0000   1.0000   1.0000   1.0000
     1.0000   1.0000   1.0000   1.0000   1.0000   1.0000   1.0000   1.0000
     1.0000   1.0000   1.0000   1.0000   1.0000   1.0000   1.0000   1.0000
     1.0000   1.0000   1.0000   1.0000   1.0000   1.0000   1.0000   1.0000
     1.0000   1.0000   1.0000   1.0000   1.0000   1.0000   1.0000   1.0000
     1.0000   0.0000   0.0000   0.0000   0.0000   0.0000   0.0000   0.0000
     0.0000   0.0000   0.0000   0.0000   0.0000   0.0000   0.0000   0.0000
     0.0000   0.0000   0.0000   0.0000   0.0000   0.0000   0.0000

     the Fermi energy is    -0.2489 ev

!    total energy              =    -757.32564904 Ry
     Harris-Foulkes estimate   =    -757.32564909 Ry
     estimated scf accuracy    <       0.00000014 Ry

     The total energy is the sum of the following terms:

     one-electron contribution =   -2599.22503887 Ry
     hartree contribution      =    1346.39338563 Ry
     xc contribution           =    -252.70295848 Ry
     ewald contribution        =     748.20928000 Ry
     smearing contrib. (-TS)   =      -0.00031733 Ry

     total magnetization       =     1.00 Bohr mag/cell
     absolute magnetization    =     1.54 Bohr mag/cell

     convergence has been achieved in  26 iterations

     Writing output data file distance-2.0.save/

     init_run     :     75.58s CPU     77.02s WALL (       1 calls)
     electrons    :   2721.88s CPU   2771.38s WALL (       1 calls)

     Called by init_run:
     wfcinit      :     43.34s CPU     43.64s WALL (       1 calls)
     wfcinit:atom :      0.05s CPU      0.08s WALL (       2 calls)
     wfcinit:wfcr :     42.93s CPU     43.14s WALL (       2 calls)
     potinit      :     13.28s CPU     13.77s WALL (       1 calls)
     hinit0       :     10.22s CPU     10.26s WALL (       1 calls)

     Called by electrons:
     c_bands      :   1760.01s CPU   1770.48s WALL (      26 calls)
     sum_band     :    558.65s CPU    574.65s WALL (      26 calls)
     v_of_rho     :    200.92s CPU    210.31s WALL (      27 calls)
     v_h          :      2.14s CPU      2.20s WALL (      27 calls)
     v_xc         :    198.78s CPU    208.11s WALL (      27 calls)
     newd         :    198.67s CPU    212.96s WALL (      27 calls)
     mix_rho      :     12.01s CPU     12.17s WALL (      26 calls)

     Called by c_bands:
     init_us_2    :      5.06s CPU      5.10s WALL (     106 calls)
     cegterg      :   1746.91s CPU   1757.30s WALL (      52 calls)

     Called by sum_band:
     sum_band:bec :      0.04s CPU      0.04s WALL (      52 calls)
     addusdens    :    344.40s CPU    358.89s WALL (      26 calls)

     Called by *egterg:
     h_psi        :    923.01s CPU    930.16s WALL (     229 calls)
     s_psi        :    306.50s CPU    306.70s WALL (     229 calls)
     g_psi        :      1.02s CPU      1.03s WALL (     175 calls)
     cdiaghg      :     16.36s CPU     16.37s WALL (     227 calls)
     cegterg:over :    216.26s CPU    216.44s WALL (     175 calls)
     cegterg:upda :    137.36s CPU    138.30s WALL (     175 calls)
     cegterg:last :     95.95s CPU     95.99s WALL (      53 calls)

     Called by h_psi:
     h_psi:pot    :    921.87s CPU    927.93s WALL (     229 calls)
     h_psi:calbec :    306.18s CPU    306.35s WALL (     229 calls)
     vloc_psi     :    308.77s CPU    314.50s WALL (     229 calls)
     add_vuspsi   :    306.92s CPU    307.08s WALL (     229 calls)

     General routines
     calbec       :    433.26s CPU    433.49s WALL (     281 calls)
     fft          :    112.29s CPU    116.05s WALL (    2019 calls)
     ffts         :      2.09s CPU      2.19s WALL (     106 calls)
     fftw         :    324.41s CPU    330.47s WALL (   38708 calls)
     interpolate  :      4.74s CPU      4.88s WALL (      54 calls)

     Parallel routines
     fft_scatt_xy :     79.28s CPU     80.35s WALL (   40833 calls)
     fft_scatt_yz :    144.71s CPU    151.87s WALL (   40833 calls)

     PWSCF        :  46m38.80s CPU  47m30.20s WALL


   This run was terminated on:   8:29:59  23Aug2022            

=------------------------------------------------------------------------------=
   JOB DONE.
=------------------------------------------------------------------------------=
