
     Program PWSCF v.6.4.1 starts on 23Aug2022 at  5: 2:37 

     This program is part of the open-source Quantum ESPRESSO suite
     for quantum simulation of materials; please cite
         "P. Giannozzi et al., J. Phys.:Condens. Matter 21 395502 (2009);
         "P. Giannozzi et al., J. Phys.:Condens. Matter 29 465901 (2017);
          URL http://www.quantum-espresso.org", 
     in publications or presentations arising from this work. More details at
     http://www.quantum-espresso.org/quote

     Parallel version (MPI), running on     6 processors

     MPI processes distributed on     1 nodes
     R & G space division:  proc/nbgrp/npool/nimage =       6
     Reading input from distance-2.8.in

     Current dimensions of program PWSCF are:
     Max number of different atomic species (ntypx) = 10
     Max number of k-points (npk) =  40000
     Max angular momentum in pseudopotentials (lmaxx) =  3

     IMPORTANT: XC functional enforced from input :
     Exchange-correlation      = RVV10 ( 1  4 13  4 3 0)
     Any further DFT definition will be discarded
     Please, verify this is what you really want

               file H.pbe-rrkjus.UPF: wavefunction(s)  1S renormalized
               file V.pbe-spnl-rrkjus_psl.1.0.0.UPF: wavefunction(s)  3P 3D renormalized

     Subspace diagonalization in iterative solution of the eigenvalue problem:
     a serial algorithm will be used


     Parallelization info
     --------------------
     sticks:   dense  smooth     PW     G-vecs:    dense   smooth      PW
     Min        3051    1746    432               270999   117096   14629
     Max        3053    1747    437               271001   117099   14630
     Sum       18313   10477   2611              1626001   702581   87777



     bravais-lattice index     =            4
     lattice parameter (alat)  =      23.2937  a.u.
     unit-cell volume          =    8879.8548 (a.u.)^3
     number of atoms/cell      =           52
     number of atomic types    =            3
     number of electrons       =       211.00
     number of Kohn-Sham states=          127
     kinetic-energy cutoff     =      70.0000  Ry
     charge density cutoff     =     490.0000  Ry
     convergence threshold     =      1.0E-06
     mixing beta               =       0.7000
     number of iterations used =            8  plain     mixing
     Exchange-correlation      = RVV10 ( 1  4 13  4 3 0)

     celldm(1)=  23.293684  celldm(2)=   0.000000  celldm(3)=   0.811261
     celldm(4)=   0.000000  celldm(5)=   0.000000  celldm(6)=   0.000000

     crystal axes: (cart. coord. in units of alat)
               a(1) = (   1.000000   0.000000   0.000000 )  
               a(2) = (  -0.500000   0.866025   0.000000 )  
               a(3) = (   0.000000   0.000000   0.811261 )  

     reciprocal axes: (cart. coord. in units 2 pi/alat)
               b(1) = (  1.000000  0.577350 -0.000000 )  
               b(2) = (  0.000000  1.154701  0.000000 )  
               b(3) = (  0.000000 -0.000000  1.232649 )  


     PseudoPot. # 1 for H  read from file:
     /home/cristian/Escritorio/Proyecto_Grafeno/pseudopotenciales/H.pbe-rrkjus.UPF
     MD5 check sum: 7cc9d459525c9a0585f487a71c3c9563
     Pseudo is Ultrasoft, Zval =  1.0
     Generated by new atomic code, or converted to UPF format
     Using radial grid of 1061 points,  2 beta functions with: 
                l(1) =   0
                l(2) =   0
     Q(r) pseudized with 0 coefficients 


     PseudoPot. # 2 for C  read from file:
     /home/cristian/Escritorio/Proyecto_Grafeno/pseudopotenciales/C.pbe-n-rrkjus_psl.1.0.0.UPF
     MD5 check sum: 1fdd950c42eb37d8afe3dd2f8d12311e
     Pseudo is Ultrasoft + core correction, Zval =  4.0
     Generated using "atomic" code by A. Dal Corso v.6.3MaX
     Using radial grid of 1073 points,  4 beta functions with: 
                l(1) =   0
                l(2) =   0
                l(3) =   1
                l(4) =   1
     Q(r) pseudized with 0 coefficients 


     PseudoPot. # 3 for V  read from file:
     /home/cristian/Escritorio/Proyecto_Grafeno/pseudopotenciales/V.pbe-spnl-rrkjus_psl.1.0.0.UPF
     MD5 check sum: 79b3eb63147daf0b665d9f1bcc691206
     Pseudo is Ultrasoft + core correction, Zval = 13.0
     Generated using "atomic" code by A. Dal Corso v.6.2.2
     Using radial grid of 1181 points,  6 beta functions with: 
                l(1) =   0
                l(2) =   0
                l(3) =   1
                l(4) =   1
                l(5) =   2
                l(6) =   2
     Q(r) pseudized with 0 coefficients 


     vdW kernel table read from file rVV10_kernel_table
     MD5 check sum: b8e2538accc0c0b3206b45ba4daaba6c

     atomic species   valence    mass     pseudopotential
        H              1.00     1.00794     H ( 1.00)
        C              4.00    12.01070     C ( 1.00)
        V             13.00    50.94150     V ( 1.00)

     Starting magnetic structure 
     atomic species   magnetization
        H            0.500
        C            0.300
        V            0.800

      2 Sym. Ops. (no inversion) found


                                    s                        frac. trans.

      isym =  1     identity                                     

 cryst.   s( 1) = (     1          0          0      )
                  (     0          1          0      )
                  (     0          0          1      )

 cart.    s( 1) = (  1.0000000  0.0000000  0.0000000 )
                  (  0.0000000  1.0000000  0.0000000 )
                  (  0.0000000  0.0000000  1.0000000 )


      isym =  2     inv. 180 deg rotation - cryst. axis [1,1,0]  

 cryst.   s( 2) = (     0         -1          0      )
                  (    -1          0          0      )
                  (     0          0          1      )

 cart.    s( 2) = (  0.5000000 -0.8660254  0.0000000 )
                  ( -0.8660254 -0.5000000  0.0000000 )
                  (  0.0000000  0.0000000  1.0000000 )


     point group C_s (m)    
     there are  2 classes
     the character table:

       E     s    
A'     1.00  1.00
A''    1.00 -1.00

     the symmetry operations in each class and the name of the first element:

     E        1
          identity                                               
     s        2
          inv. 180 deg rotation - cryst. axis [1,1,0]            

   Cartesian axes

     site n.     atom                  positions (alat units)
         1           H   tau(   1) = (   0.3000000   0.4041452   0.2271531  )
         2           H   tau(   2) = (   0.3000000   0.4041452   0.2881658  )
         3           C   tau(   3) = (   0.0000000   0.0000000   0.0000000  )
         4           C   tau(   4) = (   0.0000000   0.1154701   0.0000000  )
         5           C   tau(   5) = (  -0.1000000   0.1732051   0.0000000  )
         6           C   tau(   6) = (  -0.1000000   0.2886751   0.0000000  )
         7           C   tau(   7) = (  -0.2000000   0.3464102   0.0000000  )
         8           C   tau(   8) = (  -0.2000000   0.4618802   0.0000000  )
         9           C   tau(   9) = (  -0.3000000   0.5196152   0.0000000  )
        10           C   tau(  10) = (  -0.3000000   0.6350853   0.0000000  )
        11           C   tau(  11) = (  -0.4000000   0.6928203   0.0000000  )
        12           C   tau(  12) = (  -0.4000000   0.8082904   0.0000000  )
        13           C   tau(  13) = (   0.2000000   0.0000000   0.0000000  )
        14           C   tau(  14) = (   0.2000000   0.1154701   0.0000000  )
        15           C   tau(  15) = (   0.1000000   0.1732051   0.0000000  )
        16           C   tau(  16) = (   0.1000000   0.2886751   0.0000000  )
        17           C   tau(  17) = (   0.0000000   0.3464102   0.0000000  )
        18           C   tau(  18) = (   0.0000000   0.4618802   0.0000000  )
        19           C   tau(  19) = (  -0.1000000   0.5196152   0.0000000  )
        20           C   tau(  20) = (  -0.1000000   0.6350853   0.0000000  )
        21           C   tau(  21) = (  -0.2000000   0.6928203   0.0000000  )
        22           C   tau(  22) = (  -0.2000000   0.8082904   0.0000000  )
        23           C   tau(  23) = (   0.4000000   0.0000000   0.0000000  )
        24           C   tau(  24) = (   0.4000000   0.1154701   0.0000000  )
        25           C   tau(  25) = (   0.3000000   0.1732051   0.0000000  )
        26           C   tau(  26) = (   0.3000000   0.2886751   0.0000000  )
        27           C   tau(  27) = (   0.2000000   0.3464102   0.0000000  )
        28           V   tau(  28) = (   0.2000000   0.4618802   0.0000000  )
        29           C   tau(  29) = (   0.1000000   0.5196152   0.0000000  )
        30           C   tau(  30) = (   0.1000000   0.6350853   0.0000000  )
        31           C   tau(  31) = (   0.0000000   0.6928203   0.0000000  )
        32           C   tau(  32) = (   0.0000000   0.8082904   0.0000000  )
        33           C   tau(  33) = (   0.6000000   0.0000000   0.0000000  )
        34           C   tau(  34) = (   0.6000000   0.1154701   0.0000000  )
        35           C   tau(  35) = (   0.5000000   0.1732051   0.0000000  )
        36           C   tau(  36) = (   0.5000000   0.2886751   0.0000000  )
        37           C   tau(  37) = (   0.4000000   0.3464102   0.0000000  )
        38           C   tau(  38) = (   0.4000000   0.4618802   0.0000000  )
        39           C   tau(  39) = (   0.3000000   0.5196152   0.0000000  )
        40           C   tau(  40) = (   0.3000000   0.6350853   0.0000000  )
        41           C   tau(  41) = (   0.2000000   0.6928203   0.0000000  )
        42           C   tau(  42) = (   0.2000000   0.8082904   0.0000000  )
        43           C   tau(  43) = (   0.8000000   0.0000000   0.0000000  )
        44           C   tau(  44) = (   0.8000000   0.1154701   0.0000000  )
        45           C   tau(  45) = (   0.7000000   0.1732051   0.0000000  )
        46           C   tau(  46) = (   0.7000000   0.2886751   0.0000000  )
        47           C   tau(  47) = (   0.6000000   0.3464102   0.0000000  )
        48           C   tau(  48) = (   0.6000000   0.4618802   0.0000000  )
        49           C   tau(  49) = (   0.5000000   0.5196152   0.0000000  )
        50           C   tau(  50) = (   0.5000000   0.6350853   0.0000000  )
        51           C   tau(  51) = (   0.4000000   0.6928203   0.0000000  )
        52           C   tau(  52) = (   0.4000000   0.8082904   0.0000000  )

   Crystallographic axes

     site n.     atom                  positions (cryst. coord.)
         1           H   tau(   1) = (  0.5333333  0.4666667  0.2800000  )
         2           H   tau(   2) = (  0.5333333  0.4666667  0.3552072  )
         3           C   tau(   3) = (  0.0000000  0.0000000  0.0000000  )
         4           C   tau(   4) = (  0.0666667  0.1333333  0.0000000  )
         5           C   tau(   5) = (  0.0000000  0.2000000  0.0000000  )
         6           C   tau(   6) = (  0.0666667  0.3333333  0.0000000  )
         7           C   tau(   7) = (  0.0000000  0.4000000  0.0000000  )
         8           C   tau(   8) = (  0.0666667  0.5333333  0.0000000  )
         9           C   tau(   9) = (  0.0000000  0.6000000  0.0000000  )
        10           C   tau(  10) = (  0.0666667  0.7333333  0.0000000  )
        11           C   tau(  11) = (  0.0000000  0.8000000  0.0000000  )
        12           C   tau(  12) = (  0.0666667  0.9333333  0.0000000  )
        13           C   tau(  13) = (  0.2000000  0.0000000  0.0000000  )
        14           C   tau(  14) = (  0.2666667  0.1333333  0.0000000  )
        15           C   tau(  15) = (  0.2000000  0.2000000  0.0000000  )
        16           C   tau(  16) = (  0.2666667  0.3333333  0.0000000  )
        17           C   tau(  17) = (  0.2000000  0.4000000  0.0000000  )
        18           C   tau(  18) = (  0.2666667  0.5333333  0.0000000  )
        19           C   tau(  19) = (  0.2000000  0.6000000  0.0000000  )
        20           C   tau(  20) = (  0.2666667  0.7333333  0.0000000  )
        21           C   tau(  21) = (  0.2000000  0.8000000  0.0000000  )
        22           C   tau(  22) = (  0.2666667  0.9333333  0.0000000  )
        23           C   tau(  23) = (  0.4000000  0.0000000  0.0000000  )
        24           C   tau(  24) = (  0.4666667  0.1333333  0.0000000  )
        25           C   tau(  25) = (  0.4000000  0.2000000  0.0000000  )
        26           C   tau(  26) = (  0.4666667  0.3333333  0.0000000  )
        27           C   tau(  27) = (  0.4000000  0.4000000  0.0000000  )
        28           V   tau(  28) = (  0.4666667  0.5333333  0.0000000  )
        29           C   tau(  29) = (  0.4000000  0.6000000  0.0000000  )
        30           C   tau(  30) = (  0.4666667  0.7333333  0.0000000  )
        31           C   tau(  31) = (  0.4000000  0.8000000  0.0000000  )
        32           C   tau(  32) = (  0.4666667  0.9333333  0.0000000  )
        33           C   tau(  33) = (  0.6000000  0.0000000  0.0000000  )
        34           C   tau(  34) = (  0.6666667  0.1333333  0.0000000  )
        35           C   tau(  35) = (  0.6000000  0.2000000  0.0000000  )
        36           C   tau(  36) = (  0.6666667  0.3333333  0.0000000  )
        37           C   tau(  37) = (  0.6000000  0.4000000  0.0000000  )
        38           C   tau(  38) = (  0.6666667  0.5333333  0.0000000  )
        39           C   tau(  39) = (  0.6000000  0.6000000  0.0000000  )
        40           C   tau(  40) = (  0.6666667  0.7333333  0.0000000  )
        41           C   tau(  41) = (  0.6000000  0.8000000  0.0000000  )
        42           C   tau(  42) = (  0.6666667  0.9333333  0.0000000  )
        43           C   tau(  43) = (  0.8000000  0.0000000  0.0000000  )
        44           C   tau(  44) = (  0.8666667  0.1333333  0.0000000  )
        45           C   tau(  45) = (  0.8000000  0.2000000  0.0000000  )
        46           C   tau(  46) = (  0.8666667  0.3333333  0.0000000  )
        47           C   tau(  47) = (  0.8000000  0.4000000  0.0000000  )
        48           C   tau(  48) = (  0.8666667  0.5333333  0.0000000  )
        49           C   tau(  49) = (  0.8000000  0.6000000  0.0000000  )
        50           C   tau(  50) = (  0.8666667  0.7333333  0.0000000  )
        51           C   tau(  51) = (  0.8000000  0.8000000  0.0000000  )
        52           C   tau(  52) = (  0.8666667  0.9333333  0.0000000  )

     number of k points=     1  Marzari-Vanderbilt smearing, width (Ry)=  0.0010
                       cart. coord. in units 2pi/alat
        k(    1) = (   0.0000000   0.0000000   0.0000000), wk =   1.0000000

                       cryst. coord.
        k(    1) = (   0.0000000   0.0000000   0.0000000), wk =   1.0000000

     Dense  grid:  1626001 G-vectors     FFT dimensions: ( 180, 180, 135)

     Smooth grid:   702581 G-vectors     FFT dimensions: ( 125, 125, 108)

     Dynamical RAM for                 wfc:      28.36 MB

     Dynamical RAM for     wfc (w. buffer):      85.09 MB

     Dynamical RAM for           str. fact:      12.41 MB

     Dynamical RAM for           local pot:       0.00 MB

     Dynamical RAM for          nlocal pot:      92.46 MB

     Dynamical RAM for                qrad:      19.73 MB

     Dynamical RAM for          rho,v,vnew:      58.92 MB

     Dynamical RAM for               rhoin:      19.64 MB

     Dynamical RAM for            rho*nmix:     132.32 MB

     Dynamical RAM for           G-vectors:      16.40 MB

     Dynamical RAM for          h,s,v(r/c):      11.81 MB

     Dynamical RAM for          <psi|beta>:       0.80 MB

     Dynamical RAM for                 psi:     113.46 MB

     Dynamical RAM for                hpsi:     113.46 MB

     Dynamical RAM for                spsi:     113.46 MB

     Dynamical RAM for      wfcinit/wfcrot:      93.90 MB

     Dynamical RAM for           addusdens:     975.89 MB

     Estimated static dynamical RAM per process >     487.63 MB

     Estimated max dynamical RAM per process >       1.43 GB

     Estimated total dynamical RAM >       8.58 GB
     Generating pointlists ...
     new r_m :   0.0252 (alat units)  0.5862 (a.u.) for type    1
     new r_m :   0.0476 (alat units)  1.1095 (a.u.) for type    2
     new r_m :   0.0476 (alat units)  1.1095 (a.u.) for type    3

     Check: negative core charge=   -0.000002

     Initial potential from superposition of free atoms

     starting charge  210.80465, renormalised to  211.00000

     negative rho (up, down):  1.176E-04 1.520E-02


---------------------------------------------------------------------------------
Carrying out rVV10 run using the following parameters:
Nqs =      20    Nr_points =    1024   r_max =   100.000
b_value =  6.30000    beta =  0.00901
     q_mesh =  0.00010000  0.00030000  0.00058939  0.00100810
               0.00161396  0.00249058  0.00375900  0.00559430
               0.00824984  0.01209221  0.01765183  0.02569619
               0.03733578  0.05417739  0.07854596  0.11380545
               0.16482331  0.23864234  0.34545298  0.50000000

Gradients computed in Reciprocal space

---------------------------------------------------------------------------------


     Starting wfcs are  208 randomized atomic wfcs

     total cpu time spent up to now is       74.2 secs

     Self-consistent Calculation

     iteration #  1     ecut=    70.00 Ry     beta= 0.70
     Davidson diagonalization with overlap
     ethr =  1.00E-02,  avg # of iterations =  5.0

     negative rho (up, down):  2.392E-04 1.232E-02

     total cpu time spent up to now is      205.9 secs

     total energy              =    -753.36160852 Ry
     Harris-Foulkes estimate   =    -756.89184291 Ry
     estimated scf accuracy    <      11.32484734 Ry

     total magnetization       =     5.00 Bohr mag/cell
     absolute magnetization    =     6.04 Bohr mag/cell

     iteration #  2     ecut=    70.00 Ry     beta= 0.70
     Davidson diagonalization with overlap
     ethr =  5.37E-03,  avg # of iterations =  7.0

     negative rho (up, down):  3.516E-03 1.752E-01

     total cpu time spent up to now is      328.4 secs

     total energy              =    -747.00088633 Ry
     Harris-Foulkes estimate   =    -766.59489696 Ry
     estimated scf accuracy    <      67.76933631 Ry

     total magnetization       =     3.00 Bohr mag/cell
     absolute magnetization    =     3.35 Bohr mag/cell

     iteration #  3     ecut=    70.00 Ry     beta= 0.70
     Davidson diagonalization with overlap
     ethr =  5.37E-03,  avg # of iterations =  5.0

     negative rho (up, down):  1.363E-03 1.884E-02

     total cpu time spent up to now is      501.9 secs

     total energy              =    -755.75293828 Ry
     Harris-Foulkes estimate   =    -758.22226816 Ry
     estimated scf accuracy    <      11.62361775 Ry

     total magnetization       =     5.00 Bohr mag/cell
     absolute magnetization    =     5.78 Bohr mag/cell

     iteration #  4     ecut=    70.00 Ry     beta= 0.70
     Davidson diagonalization with overlap
     ethr =  5.37E-03,  avg # of iterations =  3.0

     negative rho (up, down):  4.758E-02 2.077E-02

     total cpu time spent up to now is      597.7 secs

     total energy              =    -757.04356812 Ry
     Harris-Foulkes estimate   =    -757.51637309 Ry
     estimated scf accuracy    <       1.39945732 Ry

     total magnetization       =     1.00 Bohr mag/cell
     absolute magnetization    =     1.69 Bohr mag/cell

     iteration #  5     ecut=    70.00 Ry     beta= 0.70
     Davidson diagonalization with overlap
     ethr =  6.63E-04,  avg # of iterations =  7.0

     negative rho (up, down):  5.365E-02 1.747E-02

     total cpu time spent up to now is      712.1 secs

     total energy              =    -757.21384253 Ry
     Harris-Foulkes estimate   =    -757.32631907 Ry
     estimated scf accuracy    <       0.36072296 Ry

     total magnetization       =     1.00 Bohr mag/cell
     absolute magnetization    =     1.51 Bohr mag/cell

     iteration #  6     ecut=    70.00 Ry     beta= 0.70
     Davidson diagonalization with overlap
     ethr =  1.71E-04,  avg # of iterations =  4.0

     negative rho (up, down):  2.892E-02 1.778E-02

     total cpu time spent up to now is      820.2 secs

     total energy              =    -757.29459351 Ry
     Harris-Foulkes estimate   =    -757.32132468 Ry
     estimated scf accuracy    <       0.19975291 Ry

     total magnetization       =     1.00 Bohr mag/cell
     absolute magnetization    =     1.44 Bohr mag/cell

     iteration #  7     ecut=    70.00 Ry     beta= 0.70
     Davidson diagonalization with overlap
     ethr =  9.47E-05,  avg # of iterations =  3.0

     negative rho (up, down):  3.093E-02 1.480E-02

     total cpu time spent up to now is      918.7 secs

     total energy              =    -757.32112991 Ry
     Harris-Foulkes estimate   =    -757.32519840 Ry
     estimated scf accuracy    <       0.03381959 Ry

     total magnetization       =     1.00 Bohr mag/cell
     absolute magnetization    =     1.36 Bohr mag/cell

     iteration #  8     ecut=    70.00 Ry     beta= 0.70
     Davidson diagonalization with overlap
     ethr =  1.60E-05,  avg # of iterations =  6.0

     negative rho (up, down):  3.117E-02 2.276E-02

     total cpu time spent up to now is     1036.6 secs

     total energy              =    -757.32715189 Ry
     Harris-Foulkes estimate   =    -757.33292370 Ry
     estimated scf accuracy    <       0.03560065 Ry

     total magnetization       =     1.00 Bohr mag/cell
     absolute magnetization    =     1.38 Bohr mag/cell

     iteration #  9     ecut=    70.00 Ry     beta= 0.70
     Davidson diagonalization with overlap
     ethr =  1.60E-05,  avg # of iterations =  3.0

     negative rho (up, down):  3.330E-02 1.944E-02

     total cpu time spent up to now is     1134.9 secs

     total energy              =    -757.33110135 Ry
     Harris-Foulkes estimate   =    -757.33157285 Ry
     estimated scf accuracy    <       0.00527124 Ry

     total magnetization       =     1.00 Bohr mag/cell
     absolute magnetization    =     1.39 Bohr mag/cell

     iteration # 10     ecut=    70.00 Ry     beta= 0.70
     Davidson diagonalization with overlap
     ethr =  2.50E-06,  avg # of iterations =  5.5

     negative rho (up, down):  3.442E-02 1.375E-02

     total cpu time spent up to now is     1238.5 secs

     total energy              =    -757.33188056 Ry
     Harris-Foulkes estimate   =    -757.33216015 Ry
     estimated scf accuracy    <       0.00379511 Ry

     total magnetization       =     1.00 Bohr mag/cell
     absolute magnetization    =     1.41 Bohr mag/cell

     iteration # 11     ecut=    70.00 Ry     beta= 0.70
     Davidson diagonalization with overlap
     ethr =  1.80E-06,  avg # of iterations =  3.0

     negative rho (up, down):  3.331E-02 5.965E-03

     total cpu time spent up to now is     1333.7 secs

     total energy              =    -757.33317424 Ry
     Harris-Foulkes estimate   =    -757.33217726 Ry
     estimated scf accuracy    <       0.00018034 Ry

     total magnetization       =     1.00 Bohr mag/cell
     absolute magnetization    =     1.43 Bohr mag/cell

     iteration # 12     ecut=    70.00 Ry     beta= 0.70
     Davidson diagonalization with overlap
     ethr =  8.55E-08,  avg # of iterations =  4.0

     negative rho (up, down):  3.380E-02 3.214E-03

     total cpu time spent up to now is     1453.6 secs

     total energy              =    -757.33328556 Ry
     Harris-Foulkes estimate   =    -757.33326745 Ry
     estimated scf accuracy    <       0.00018184 Ry

     total magnetization       =     1.00 Bohr mag/cell
     absolute magnetization    =     1.46 Bohr mag/cell

     iteration # 13     ecut=    70.00 Ry     beta= 0.70
     Davidson diagonalization with overlap
     ethr =  8.55E-08,  avg # of iterations =  2.5

     negative rho (up, down):  3.404E-02 3.326E-03

     total cpu time spent up to now is     1552.8 secs

     total energy              =    -757.33331473 Ry
     Harris-Foulkes estimate   =    -757.33331644 Ry
     estimated scf accuracy    <       0.00001675 Ry

     total magnetization       =     1.00 Bohr mag/cell
     absolute magnetization    =     1.47 Bohr mag/cell

     iteration # 14     ecut=    70.00 Ry     beta= 0.70
     Davidson diagonalization with overlap
     ethr =  7.94E-09,  avg # of iterations =  6.5

     negative rho (up, down):  3.413E-02 3.319E-03

     total cpu time spent up to now is     1667.9 secs

     total energy              =    -757.33332110 Ry
     Harris-Foulkes estimate   =    -757.33332106 Ry
     estimated scf accuracy    <       0.00001086 Ry

     total magnetization       =     1.00 Bohr mag/cell
     absolute magnetization    =     1.49 Bohr mag/cell

     iteration # 15     ecut=    70.00 Ry     beta= 0.70
     Davidson diagonalization with overlap
     ethr =  5.15E-09,  avg # of iterations =  3.0

     negative rho (up, down):  3.413E-02 2.017E-03

     total cpu time spent up to now is     1764.4 secs

     total energy              =    -757.33332558 Ry
     Harris-Foulkes estimate   =    -757.33332249 Ry
     estimated scf accuracy    <       0.00000742 Ry

     total magnetization       =     1.00 Bohr mag/cell
     absolute magnetization    =     1.50 Bohr mag/cell

     iteration # 16     ecut=    70.00 Ry     beta= 0.70
     Davidson diagonalization with overlap
     ethr =  3.51E-09,  avg # of iterations =  2.0

     negative rho (up, down):  3.419E-02 2.899E-03

     total cpu time spent up to now is     1861.7 secs

     total energy              =    -757.33332339 Ry
     Harris-Foulkes estimate   =    -757.33332662 Ry
     estimated scf accuracy    <       0.00001244 Ry

     total magnetization       =     1.00 Bohr mag/cell
     absolute magnetization    =     1.51 Bohr mag/cell

     iteration # 17     ecut=    70.00 Ry     beta= 0.70
     Davidson diagonalization with overlap
     ethr =  3.51E-09,  avg # of iterations =  2.0

     negative rho (up, down):  3.414E-02 1.733E-03

     total cpu time spent up to now is     1956.2 secs

     total energy              =    -757.33332738 Ry
     Harris-Foulkes estimate   =    -757.33332419 Ry
     estimated scf accuracy    <       0.00000154 Ry

     total magnetization       =     1.00 Bohr mag/cell
     absolute magnetization    =     1.52 Bohr mag/cell

     iteration # 18     ecut=    70.00 Ry     beta= 0.70
     Davidson diagonalization with overlap
     ethr =  7.31E-10,  avg # of iterations =  3.0

     negative rho (up, down):  3.415E-02 1.948E-03

     total cpu time spent up to now is     2071.0 secs

     total energy              =    -757.33332813 Ry
     Harris-Foulkes estimate   =    -757.33332859 Ry
     estimated scf accuracy    <       0.00002031 Ry

     total magnetization       =     1.00 Bohr mag/cell
     absolute magnetization    =     1.52 Bohr mag/cell

     iteration # 19     ecut=    70.00 Ry     beta= 0.70
     Davidson diagonalization with overlap
     ethr =  7.31E-10,  avg # of iterations =  2.5

     negative rho (up, down):  3.414E-02 1.766E-03

     total cpu time spent up to now is     2172.6 secs

     total energy              =    -757.33332846 Ry
     Harris-Foulkes estimate   =    -757.33332845 Ry
     estimated scf accuracy    <       0.00000637 Ry

     total magnetization       =     1.00 Bohr mag/cell
     absolute magnetization    =     1.52 Bohr mag/cell

     iteration # 20     ecut=    70.00 Ry     beta= 0.70
     Davidson diagonalization with overlap
     ethr =  7.31E-10,  avg # of iterations =  3.0

     negative rho (up, down):  3.416E-02 1.886E-03

     total cpu time spent up to now is     2286.7 secs

     total energy              =    -757.33332790 Ry
     Harris-Foulkes estimate   =    -757.33332911 Ry
     estimated scf accuracy    <       0.00000839 Ry

     total magnetization       =     1.00 Bohr mag/cell
     absolute magnetization    =     1.53 Bohr mag/cell

     iteration # 21     ecut=    70.00 Ry     beta= 0.70
     Davidson diagonalization with overlap
     ethr =  7.31E-10,  avg # of iterations =  3.0

     negative rho (up, down):  3.415E-02 1.878E-03

     total cpu time spent up to now is     2392.8 secs

     total energy              =    -757.33332878 Ry
     Harris-Foulkes estimate   =    -757.33332829 Ry
     estimated scf accuracy    <       0.00000876 Ry

     total magnetization       =     1.00 Bohr mag/cell
     absolute magnetization    =     1.53 Bohr mag/cell

     iteration # 22     ecut=    70.00 Ry     beta= 0.70
     Davidson diagonalization with overlap
     ethr =  7.31E-10,  avg # of iterations =  2.0

     negative rho (up, down):  3.415E-02 1.864E-03

     total cpu time spent up to now is     2489.8 secs

     total energy              =    -757.33332890 Ry
     Harris-Foulkes estimate   =    -757.33332898 Ry
     estimated scf accuracy    <       0.00000519 Ry

     total magnetization       =     1.00 Bohr mag/cell
     absolute magnetization    =     1.54 Bohr mag/cell

     iteration # 23     ecut=    70.00 Ry     beta= 0.70
     Davidson diagonalization with overlap
     ethr =  7.31E-10,  avg # of iterations =  2.5

     negative rho (up, down):  3.415E-02 1.760E-03

     total cpu time spent up to now is     2586.7 secs

     total energy              =    -757.33332917 Ry
     Harris-Foulkes estimate   =    -757.33332908 Ry
     estimated scf accuracy    <       0.00000271 Ry

     total magnetization       =     1.00 Bohr mag/cell
     absolute magnetization    =     1.54 Bohr mag/cell

     iteration # 24     ecut=    70.00 Ry     beta= 0.70
     Davidson diagonalization with overlap
     ethr =  7.31E-10,  avg # of iterations =  1.0

     negative rho (up, down):  3.414E-02 1.824E-03

     total cpu time spent up to now is     2680.6 secs

     total energy              =    -757.33332914 Ry
     Harris-Foulkes estimate   =    -757.33332923 Ry
     estimated scf accuracy    <       0.00000297 Ry

     total magnetization       =     1.00 Bohr mag/cell
     absolute magnetization    =     1.54 Bohr mag/cell

     iteration # 25     ecut=    70.00 Ry     beta= 0.70
     Davidson diagonalization with overlap
     ethr =  7.31E-10,  avg # of iterations =  2.5

     negative rho (up, down):  3.414E-02 1.841E-03

     total cpu time spent up to now is     2776.8 secs

     total energy              =    -757.33332918 Ry
     Harris-Foulkes estimate   =    -757.33332931 Ry
     estimated scf accuracy    <       0.00000167 Ry

     total magnetization       =     1.00 Bohr mag/cell
     absolute magnetization    =     1.54 Bohr mag/cell

     iteration # 26     ecut=    70.00 Ry     beta= 0.70
     Davidson diagonalization with overlap
     ethr =  7.31E-10,  avg # of iterations =  2.5

     negative rho (up, down):  3.414E-02 1.738E-03

     Magnetic moment per site:
     atom:    1    charge:    0.2118    magn:   -0.0000    constr:    0.0000
     atom:    2    charge:    0.2099    magn:   -0.0000    constr:    0.0000
     atom:    3    charge:    1.7176    magn:   -0.0068    constr:    0.0000
     atom:    4    charge:    1.7157    magn:    0.0093    constr:    0.0000
     atom:    5    charge:    1.7183    magn:   -0.0042    constr:    0.0000
     atom:    6    charge:    1.7141    magn:    0.0026    constr:    0.0000
     atom:    7    charge:    1.7183    magn:   -0.0042    constr:    0.0000
     atom:    8    charge:    1.7157    magn:    0.0094    constr:    0.0000
     atom:    9    charge:    1.7177    magn:   -0.0068    constr:    0.0000
     atom:   10    charge:    1.7145    magn:    0.0309    constr:    0.0000
     atom:   11    charge:    1.7186    magn:   -0.0089    constr:    0.0000
     atom:   12    charge:    1.7143    magn:    0.0308    constr:    0.0000
     atom:   13    charge:    1.7186    magn:   -0.0089    constr:    0.0000
     atom:   14    charge:    1.7145    magn:    0.0232    constr:    0.0000
     atom:   15    charge:    1.7169    magn:   -0.0078    constr:    0.0000
     atom:   16    charge:    1.7110    magn:    0.0297    constr:    0.0000
     atom:   17    charge:    1.7269    magn:   -0.0052    constr:    0.0000
     atom:   18    charge:    1.7109    magn:    0.0296    constr:    0.0000
     atom:   19    charge:    1.7169    magn:   -0.0079    constr:    0.0000
     atom:   20    charge:    1.7144    magn:    0.0230    constr:    0.0000
     atom:   21    charge:    1.7186    magn:   -0.0089    constr:    0.0000
     atom:   22    charge:    1.7145    magn:    0.0309    constr:    0.0000
     atom:   23    charge:    1.7177    magn:   -0.0068    constr:    0.0000
     atom:   24    charge:    1.7157    magn:    0.0093    constr:    0.0000
     atom:   25    charge:    1.7169    magn:   -0.0078    constr:    0.0000
     atom:   26    charge:    1.7113    magn:    0.0298    constr:    0.0000
     atom:   27    charge:    1.9148    magn:   -0.0004    constr:    0.0000
     atom:   28    charge:    7.8613    magn:    0.1021    constr:    0.0000
     atom:   29    charge:    1.9148    magn:   -0.0004    constr:    0.0000
     atom:   30    charge:    1.7109    magn:    0.0296    constr:    0.0000
     atom:   31    charge:    1.7169    magn:   -0.0079    constr:    0.0000
     atom:   32    charge:    1.7157    magn:    0.0094    constr:    0.0000
     atom:   33    charge:    1.7183    magn:   -0.0042    constr:    0.0000
     atom:   34    charge:    1.7138    magn:    0.0068    constr:    0.0000
     atom:   35    charge:    1.7183    magn:   -0.0042    constr:    0.0000
     atom:   36    charge:    1.7140    magn:    0.0026    constr:    0.0000
     atom:   37    charge:    1.7270    magn:   -0.0052    constr:    0.0000
     atom:   38    charge:    1.7113    magn:    0.0298    constr:    0.0000
     atom:   39    charge:    1.9148    magn:   -0.0004    constr:    0.0000
     atom:   40    charge:    1.7110    magn:    0.0297    constr:    0.0000
     atom:   41    charge:    1.7269    magn:   -0.0052    constr:    0.0000
     atom:   42    charge:    1.7141    magn:    0.0026    constr:    0.0000
     atom:   43    charge:    1.7183    magn:   -0.0042    constr:    0.0000
     atom:   44    charge:    1.7138    magn:    0.0068    constr:    0.0000
     atom:   45    charge:    1.7245    magn:   -0.0031    constr:    0.0000
     atom:   46    charge:    1.7138    magn:    0.0068    constr:    0.0000
     atom:   47    charge:    1.7183    magn:   -0.0042    constr:    0.0000
     atom:   48    charge:    1.7157    magn:    0.0093    constr:    0.0000
     atom:   49    charge:    1.7169    magn:   -0.0078    constr:    0.0000
     atom:   50    charge:    1.7145    magn:    0.0232    constr:    0.0000
     atom:   51    charge:    1.7169    magn:   -0.0078    constr:    0.0000
     atom:   52    charge:    1.7157    magn:    0.0093    constr:    0.0000

     total cpu time spent up to now is     2874.2 secs

     End of self-consistent calculation

 ------ SPIN UP ------------


          k = 0.0000 0.0000 0.0000 ( 87777 PWs)   bands (ev):

   -62.8524 -37.9368 -37.9367 -36.6196 -19.6419 -18.7988 -18.7987 -18.7293
   -18.6843 -18.6833 -18.2492 -16.9440 -16.9434 -16.9432 -16.8072 -16.8067
   -16.5240 -16.0906 -16.0905 -15.9966 -15.8422 -15.8417 -15.0909 -13.9027
   -13.8965 -13.8962 -13.8694 -13.8692 -13.1418 -12.9252 -12.9247 -12.9069
   -12.5138 -12.5134 -12.1202 -11.6535 -11.6533 -11.5288 -11.1475 -11.1472
   -10.1585  -9.3459  -9.3459  -9.2655  -9.1901  -9.1898  -9.0998  -9.0752
    -9.0752  -9.0592  -8.4711  -8.4710  -7.9023  -7.9021  -7.8675  -7.8159
    -7.6848  -7.2621  -7.2611  -7.0752  -6.9690  -6.9055  -6.8391  -6.7087
    -6.7053  -6.6716  -6.5996  -6.5993  -6.5528  -6.4425  -6.4418  -6.3980
    -6.3934  -6.3932  -6.3411  -6.2733  -5.2674  -5.2673  -5.1650  -5.1586
    -4.9533  -4.9529  -4.8419  -4.7538  -4.6265  -4.6147  -4.6142  -4.2483
    -3.9927  -3.9923  -3.7662  -3.7656  -3.6660  -3.6387  -3.5061  -3.5061
    -2.9041  -2.2680  -2.2669  -2.2318  -2.2315  -1.7555  -1.6886  -1.6881
    -0.5508  -0.2483  -0.2482   0.8692   1.0415   1.0715   1.0747   1.7843
     2.0429   2.0430   2.5619   2.8875   2.8898   2.9660   3.4918   3.5525
     3.5806   3.7293   3.7465   3.7840   3.8847   3.9948   3.9969

     occupation numbers 
     1.0000   1.0000   1.0000   1.0000   1.0000   1.0000   1.0000   1.0000
     1.0000   1.0000   1.0000   1.0000   1.0000   1.0000   1.0000   1.0000
     1.0000   1.0000   1.0000   1.0000   1.0000   1.0000   1.0000   1.0000
     1.0000   1.0000   1.0000   1.0000   1.0000   1.0000   1.0000   1.0000
     1.0000   1.0000   1.0000   1.0000   1.0000   1.0000   1.0000   1.0000
     1.0000   1.0000   1.0000   1.0000   1.0000   1.0000   1.0000   1.0000
     1.0000   1.0000   1.0000   1.0000   1.0000   1.0000   1.0000   1.0000
     1.0000   1.0000   1.0000   1.0000   1.0000   1.0000   1.0000   1.0000
     1.0000   1.0000   1.0000   1.0000   1.0000   1.0000   1.0000   1.0000
     1.0000   1.0000   1.0000   1.0000   1.0000   1.0000   1.0000   1.0000
     1.0000   1.0000   1.0000   1.0000   1.0000   1.0000   1.0000   1.0000
     1.0000   1.0000   1.0000   1.0000   1.0000   1.0000   1.0000   1.0000
     1.0000   1.0000   1.0000   1.0000   1.0000   1.0000   1.0000   1.0000
     1.0000   0.5032   0.4968   0.0000   0.0000   0.0000   0.0000   0.0000
     0.0000   0.0000   0.0000   0.0000   0.0000   0.0000   0.0000   0.0000
     0.0000   0.0000   0.0000   0.0000   0.0000   0.0000   0.0000

 ------ SPIN DOWN ----------


          k = 0.0000 0.0000 0.0000 ( 87777 PWs)   bands (ev):

   -62.6553 -37.7744 -37.7741 -36.3500 -19.6201 -18.7771 -18.7770 -18.7091
   -18.6677 -18.6666 -18.2172 -16.9273 -16.9250 -16.9243 -16.7788 -16.7783
   -16.5099 -16.0635 -16.0633 -15.9808 -15.8212 -15.8206 -15.0761 -13.8660
   -13.8658 -13.8655 -13.8557 -13.8552 -13.1449 -12.9146 -12.9140 -12.8914
   -12.5056 -12.5052 -12.1019 -11.6357 -11.6354 -11.5156 -11.1350 -11.1347
   -10.1439  -9.3289  -9.3289  -9.2525  -9.1726  -9.1723  -9.0917  -9.0611
    -9.0611  -9.0500  -8.4644  -8.4643  -7.8908  -7.8906  -7.8604  -7.7638
    -7.6764  -7.2533  -7.2523  -7.0305  -6.8911  -6.8845  -6.7946  -6.6729
    -6.6640  -6.6392  -6.5883  -6.5880  -6.5432  -6.4329  -6.4322  -6.3922
    -6.3868  -6.3866  -6.3330  -6.1994  -5.2591  -5.2590  -5.0800  -5.0735
    -4.9434  -4.9430  -4.8360  -4.7478  -4.5845  -4.5636  -4.5632  -4.2107
    -3.9415  -3.9409  -3.6920  -3.6913  -3.6198  -3.6087  -3.4995  -3.4995
    -2.8707  -2.2004  -2.1992  -2.1660  -2.1656  -1.6730  -1.6725  -1.6610
    -0.5451  -0.0211  -0.0211   0.9463   1.0926   1.0958   1.1187   1.8560
     2.1133   2.1134   2.5678   2.9583   2.9611   3.0071   3.4985   3.5746
     3.5983   3.7320   3.7484   3.7902   3.9122   4.0653   4.0664

     occupation numbers 
     1.0000   1.0000   1.0000   1.0000   1.0000   1.0000   1.0000   1.0000
     1.0000   1.0000   1.0000   1.0000   1.0000   1.0000   1.0000   1.0000
     1.0000   1.0000   1.0000   1.0000   1.0000   1.0000   1.0000   1.0000
     1.0000   1.0000   1.0000   1.0000   1.0000   1.0000   1.0000   1.0000
     1.0000   1.0000   1.0000   1.0000   1.0000   1.0000   1.0000   1.0000
     1.0000   1.0000   1.0000   1.0000   1.0000   1.0000   1.0000   1.0000
     1.0000   1.0000   1.0000   1.0000   1.0000   1.0000   1.0000   1.0000
     1.0000   1.0000   1.0000   1.0000   1.0000   1.0000   1.0000   1.0000
     1.0000   1.0000   1.0000   1.0000   1.0000   1.0000   1.0000   1.0000
     1.0000   1.0000   1.0000   1.0000   1.0000   1.0000   1.0000   1.0000
     1.0000   1.0000   1.0000   1.0000   1.0000   1.0000   1.0000   1.0000
     1.0000   1.0000   1.0000   1.0000   1.0000   1.0000   1.0000   1.0000
     1.0000   1.0000   1.0000   1.0000   1.0000   1.0000   1.0000   1.0000
     1.0000   0.0000   0.0000   0.0000   0.0000   0.0000   0.0000   0.0000
     0.0000   0.0000   0.0000   0.0000   0.0000   0.0000   0.0000   0.0000
     0.0000   0.0000   0.0000   0.0000   0.0000   0.0000   0.0000

     the Fermi energy is    -0.2463 ev

!    total energy              =    -757.33332915 Ry
     Harris-Foulkes estimate   =    -757.33332937 Ry
     estimated scf accuracy    <       0.00000040 Ry

     The total energy is the sum of the following terms:

     one-electron contribution =   -2582.53588279 Ry
     hartree contribution      =    1338.04363217 Ry
     xc contribution           =    -252.66888722 Ry
     ewald contribution        =     739.82813685 Ry
     smearing contrib. (-TS)   =      -0.00032817 Ry

     total magnetization       =     1.00 Bohr mag/cell
     absolute magnetization    =     1.54 Bohr mag/cell

     convergence has been achieved in  26 iterations

     Writing output data file distance-2.8.save/

     init_run     :     71.53s CPU     73.12s WALL (       1 calls)
     electrons    :   2751.09s CPU   2800.09s WALL (       1 calls)

     Called by init_run:
     wfcinit      :     42.70s CPU     43.03s WALL (       1 calls)
     wfcinit:atom :      0.05s CPU      0.09s WALL (       2 calls)
     wfcinit:wfcr :     42.27s CPU     42.52s WALL (       2 calls)
     potinit      :     12.03s CPU     12.60s WALL (       1 calls)
     hinit0       :      7.94s CPU      7.98s WALL (       1 calls)

     Called by electrons:
     c_bands      :   1791.33s CPU   1801.24s WALL (      26 calls)
     sum_band     :    556.35s CPU    572.19s WALL (      26 calls)
     v_of_rho     :    201.46s CPU    211.14s WALL (      27 calls)
     v_h          :      2.13s CPU      2.19s WALL (      27 calls)
     v_xc         :    199.33s CPU    208.95s WALL (      27 calls)
     newd         :    198.65s CPU    212.88s WALL (      27 calls)
     mix_rho      :     11.87s CPU     12.07s WALL (      26 calls)

     Called by c_bands:
     init_us_2    :      4.89s CPU      4.91s WALL (     106 calls)
     cegterg      :   1778.70s CPU   1788.55s WALL (      52 calls)

     Called by sum_band:
     sum_band:bec :      0.04s CPU      0.04s WALL (      52 calls)
     addusdens    :    344.62s CPU    358.94s WALL (      26 calls)

     Called by *egterg:
     h_psi        :    935.90s CPU    942.79s WALL (     241 calls)
     s_psi        :    311.49s CPU    311.64s WALL (     241 calls)
     g_psi        :      1.04s CPU      1.04s WALL (     187 calls)
     cdiaghg      :     18.52s CPU     18.53s WALL (     239 calls)
     cegterg:over :    221.62s CPU    221.73s WALL (     187 calls)
     cegterg:upda :    142.23s CPU    143.09s WALL (     187 calls)
     cegterg:last :     97.60s CPU     97.63s WALL (      53 calls)

     Called by h_psi:
     h_psi:pot    :    934.77s CPU    940.53s WALL (     241 calls)
     h_psi:calbec :    310.63s CPU    310.82s WALL (     241 calls)
     vloc_psi     :    313.61s CPU    319.09s WALL (     241 calls)
     add_vuspsi   :    310.53s CPU    310.62s WALL (     241 calls)

     General routines
     calbec       :    437.03s CPU    437.29s WALL (     293 calls)
     fft          :    112.25s CPU    116.35s WALL (    2019 calls)
     ffts         :      2.04s CPU      2.12s WALL (     106 calls)
     fftw         :    329.52s CPU    335.34s WALL (   39030 calls)
     interpolate  :      4.67s CPU      4.84s WALL (      54 calls)

     Parallel routines
     fft_scatt_xy :     80.49s CPU     81.46s WALL (   41155 calls)
     fft_scatt_yz :    146.32s CPU    153.70s WALL (   41155 calls)

     PWSCF        :  47m 3.94s CPU  47m54.96s WALL


   This run was terminated on:   5:50:32  23Aug2022            

=------------------------------------------------------------------------------=
   JOB DONE.
=------------------------------------------------------------------------------=
