
     Program PWSCF v.6.4.1 starts on 17Mar2022 at 22: 5:22 

     This program is part of the open-source Quantum ESPRESSO suite
     for quantum simulation of materials; please cite
         "P. Giannozzi et al., J. Phys.:Condens. Matter 21 395502 (2009);
         "P. Giannozzi et al., J. Phys.:Condens. Matter 29 465901 (2017);
          URL http://www.quantum-espresso.org", 
     in publications or presentations arising from this work. More details at
     http://www.quantum-espresso.org/quote

     Parallel version (MPI), running on     6 processors

     MPI processes distributed on     1 nodes
     R & G space division:  proc/nbgrp/npool/nimage =       6
     Reading input from gr-13.in

     Current dimensions of program PWSCF are:
     Max number of different atomic species (ntypx) = 10
     Max number of k-points (npk) =  40000
     Max angular momentum in pseudopotentials (lmaxx) =  3

     Subspace diagonalization in iterative solution of the eigenvalue problem:
     a serial algorithm will be used


     Parallelization info
     --------------------
     sticks:   dense  smooth     PW     G-vecs:    dense   smooth      PW
     Min         124      70     20                10844     4688     770
     Max         125      71     21                10851     4705     789
     Sum         745     421    121                65089    28157    4651



     bravais-lattice index     =            4
     lattice parameter (alat)  =       4.6544  a.u.
     unit-cell volume          =     354.5325 (a.u.)^3
     number of atoms/cell      =            2
     number of atomic types    =            1
     number of electrons       =         8.00
     number of Kohn-Sham states=            8
     kinetic-energy cutoff     =      70.0000  Ry
     charge density cutoff     =     490.0000  Ry
     convergence threshold     =      1.0E-06
     mixing beta               =       0.7000
     number of iterations used =            8  plain     mixing
     Exchange-correlation      = PBE ( 1  4  3  4 0 0)

     celldm(1)=   4.654395  celldm(2)=   0.000000  celldm(3)=   4.060089
     celldm(4)=   0.000000  celldm(5)=   0.000000  celldm(6)=   0.000000

     crystal axes: (cart. coord. in units of alat)
               a(1) = (   1.000000   0.000000   0.000000 )  
               a(2) = (  -0.500000   0.866025   0.000000 )  
               a(3) = (   0.000000   0.000000   4.060089 )  

     reciprocal axes: (cart. coord. in units 2 pi/alat)
               b(1) = (  1.000000  0.577350 -0.000000 )  
               b(2) = (  0.000000  1.154701  0.000000 )  
               b(3) = (  0.000000 -0.000000  0.246300 )  


     PseudoPot. # 1 for C  read from file:
     /home/cristian/Escritorio/Proyecto_Grafeno/pseudopotenciales/C.pbe-n-rrkjus_psl.1.0.0.UPF
     MD5 check sum: 1fdd950c42eb37d8afe3dd2f8d12311e
     Pseudo is Ultrasoft + core correction, Zval =  4.0
     Generated using "atomic" code by A. Dal Corso v.6.3MaX
     Using radial grid of 1073 points,  4 beta functions with: 
                l(1) =   0
                l(2) =   0
                l(3) =   1
                l(4) =   1
     Q(r) pseudized with 0 coefficients 


     atomic species   valence    mass     pseudopotential
        C              4.00    12.01070     C ( 1.00)

     24 Sym. Ops., with inversion, found (12 have fractional translation)


                                    s                        frac. trans.

      isym =  1     identity                                     

 cryst.   s( 1) = (     1          0          0      )
                  (     0          1          0      )
                  (     0          0          1      )

 cart.    s( 1) = (  1.0000000  0.0000000  0.0000000 )
                  (  0.0000000  1.0000000  0.0000000 )
                  (  0.0000000  0.0000000  1.0000000 )


      isym =  2     180 deg rotation - cart. axis [0,0,1]        

 cryst.   s( 2) = (    -1          0          0      )    f =( -0.3333333 )
                  (     0         -1          0      )       (  0.3333333 )
                  (     0          0          1      )       (  0.0000000 )

 cart.    s( 2) = ( -1.0000000  0.0000000  0.0000000 )    f =( -0.5000000 )
                  (  0.0000000 -1.0000000  0.0000000 )       (  0.2886751 )
                  (  0.0000000  0.0000000  1.0000000 )       (  0.0000000 )


      isym =  3     180 deg rotation - cart. axis [0,1,0]        

 cryst.   s( 3) = (    -1          0          0      )
                  (     1          1          0      )
                  (     0          0         -1      )

 cart.    s( 3) = ( -1.0000000  0.0000000  0.0000000 )
                  (  0.0000000  1.0000000  0.0000000 )
                  (  0.0000000  0.0000000 -1.0000000 )


      isym =  4     180 deg rotation - cart. axis [1,0,0]        

 cryst.   s( 4) = (     1          0          0      )    f =( -0.3333333 )
                  (    -1         -1          0      )       (  0.3333333 )
                  (     0          0         -1      )       (  0.0000000 )

 cart.    s( 4) = (  1.0000000  0.0000000  0.0000000 )    f =( -0.5000000 )
                  (  0.0000000 -1.0000000  0.0000000 )       (  0.2886751 )
                  (  0.0000000  0.0000000 -1.0000000 )       (  0.0000000 )


      isym =  5      60 deg rotation - cryst. axis [0,0,1]       

 cryst.   s( 5) = (     1          1          0      )    f =( -0.3333333 )
                  (    -1          0          0      )       (  0.3333333 )
                  (     0          0          1      )       (  0.0000000 )

 cart.    s( 5) = (  0.5000000 -0.8660254  0.0000000 )    f =( -0.5000000 )
                  (  0.8660254  0.5000000  0.0000000 )       (  0.2886751 )
                  (  0.0000000  0.0000000  1.0000000 )       (  0.0000000 )


      isym =  6      60 deg rotation - cryst. axis [0,0,-1]      

 cryst.   s( 6) = (     0         -1          0      )    f =( -0.3333333 )
                  (     1          1          0      )       (  0.3333333 )
                  (     0          0          1      )       (  0.0000000 )

 cart.    s( 6) = (  0.5000000  0.8660254  0.0000000 )    f =( -0.5000000 )
                  ( -0.8660254  0.5000000  0.0000000 )       (  0.2886751 )
                  (  0.0000000  0.0000000  1.0000000 )       (  0.0000000 )


      isym =  7     120 deg rotation - cryst. axis [0,0,1]       

 cryst.   s( 7) = (     0          1          0      )
                  (    -1         -1          0      )
                  (     0          0          1      )

 cart.    s( 7) = ( -0.5000000 -0.8660254  0.0000000 )
                  (  0.8660254 -0.5000000  0.0000000 )
                  (  0.0000000  0.0000000  1.0000000 )


      isym =  8     120 deg rotation - cryst. axis [0,0,-1]      

 cryst.   s( 8) = (    -1         -1          0      )
                  (     1          0          0      )
                  (     0          0          1      )

 cart.    s( 8) = ( -0.5000000  0.8660254  0.0000000 )
                  ( -0.8660254 -0.5000000  0.0000000 )
                  (  0.0000000  0.0000000  1.0000000 )


      isym =  9     180 deg rotation - cryst. axis [1,-1,0]      

 cryst.   s( 9) = (     0         -1          0      )
                  (    -1          0          0      )
                  (     0          0         -1      )

 cart.    s( 9) = (  0.5000000 -0.8660254  0.0000000 )
                  ( -0.8660254 -0.5000000  0.0000000 )
                  (  0.0000000  0.0000000 -1.0000000 )


      isym = 10     180 deg rotation - cryst. axis [2,1,0]       

 cryst.   s(10) = (     1          1          0      )
                  (     0         -1          0      )
                  (     0          0         -1      )

 cart.    s(10) = (  0.5000000  0.8660254  0.0000000 )
                  (  0.8660254 -0.5000000  0.0000000 )
                  (  0.0000000  0.0000000 -1.0000000 )


      isym = 11     180 deg rotation - cryst. axis [0,1,0]       

 cryst.   s(11) = (    -1         -1          0      )    f =( -0.3333333 )
                  (     0          1          0      )       (  0.3333333 )
                  (     0          0         -1      )       (  0.0000000 )

 cart.    s(11) = ( -0.5000000 -0.8660254  0.0000000 )    f =( -0.5000000 )
                  ( -0.8660254  0.5000000  0.0000000 )       (  0.2886751 )
                  (  0.0000000  0.0000000 -1.0000000 )       (  0.0000000 )


      isym = 12     180 deg rotation - cryst. axis [1,1,0]       

 cryst.   s(12) = (     0          1          0      )    f =( -0.3333333 )
                  (     1          0          0      )       (  0.3333333 )
                  (     0          0         -1      )       (  0.0000000 )

 cart.    s(12) = ( -0.5000000  0.8660254  0.0000000 )    f =( -0.5000000 )
                  (  0.8660254  0.5000000  0.0000000 )       (  0.2886751 )
                  (  0.0000000  0.0000000 -1.0000000 )       (  0.0000000 )


      isym = 13     inversion                                    

 cryst.   s(13) = (    -1          0          0      )    f =( -0.3333333 )
                  (     0         -1          0      )       (  0.3333333 )
                  (     0          0         -1      )       (  0.0000000 )

 cart.    s(13) = ( -1.0000000  0.0000000  0.0000000 )    f =( -0.5000000 )
                  (  0.0000000 -1.0000000  0.0000000 )       (  0.2886751 )
                  (  0.0000000  0.0000000 -1.0000000 )       (  0.0000000 )


      isym = 14     inv. 180 deg rotation - cart. axis [0,0,1]   

 cryst.   s(14) = (     1          0          0      )
                  (     0          1          0      )
                  (     0          0         -1      )

 cart.    s(14) = (  1.0000000  0.0000000  0.0000000 )
                  (  0.0000000  1.0000000  0.0000000 )
                  (  0.0000000  0.0000000 -1.0000000 )


      isym = 15     inv. 180 deg rotation - cart. axis [0,1,0]   

 cryst.   s(15) = (     1          0          0      )    f =( -0.3333333 )
                  (    -1         -1          0      )       (  0.3333333 )
                  (     0          0          1      )       (  0.0000000 )

 cart.    s(15) = (  1.0000000  0.0000000  0.0000000 )    f =( -0.5000000 )
                  (  0.0000000 -1.0000000  0.0000000 )       (  0.2886751 )
                  (  0.0000000  0.0000000  1.0000000 )       (  0.0000000 )


      isym = 16     inv. 180 deg rotation - cart. axis [1,0,0]   

 cryst.   s(16) = (    -1          0          0      )
                  (     1          1          0      )
                  (     0          0          1      )

 cart.    s(16) = ( -1.0000000  0.0000000  0.0000000 )
                  (  0.0000000  1.0000000  0.0000000 )
                  (  0.0000000  0.0000000  1.0000000 )


      isym = 17     inv.  60 deg rotation - cryst. axis [0,0,1]  

 cryst.   s(17) = (    -1         -1          0      )
                  (     1          0          0      )
                  (     0          0         -1      )

 cart.    s(17) = ( -0.5000000  0.8660254  0.0000000 )
                  ( -0.8660254 -0.5000000  0.0000000 )
                  (  0.0000000  0.0000000 -1.0000000 )


      isym = 18     inv.  60 deg rotation - cryst. axis [0,0,-1] 

 cryst.   s(18) = (     0          1          0      )
                  (    -1         -1          0      )
                  (     0          0         -1      )

 cart.    s(18) = ( -0.5000000 -0.8660254  0.0000000 )
                  (  0.8660254 -0.5000000  0.0000000 )
                  (  0.0000000  0.0000000 -1.0000000 )


      isym = 19     inv. 120 deg rotation - cryst. axis [0,0,1]  

 cryst.   s(19) = (     0         -1          0      )    f =( -0.3333333 )
                  (     1          1          0      )       (  0.3333333 )
                  (     0          0         -1      )       (  0.0000000 )

 cart.    s(19) = (  0.5000000  0.8660254  0.0000000 )    f =( -0.5000000 )
                  ( -0.8660254  0.5000000  0.0000000 )       (  0.2886751 )
                  (  0.0000000  0.0000000 -1.0000000 )       (  0.0000000 )


      isym = 20     inv. 120 deg rotation - cryst. axis [0,0,-1] 

 cryst.   s(20) = (     1          1          0      )    f =( -0.3333333 )
                  (    -1          0          0      )       (  0.3333333 )
                  (     0          0         -1      )       (  0.0000000 )

 cart.    s(20) = (  0.5000000 -0.8660254  0.0000000 )    f =( -0.5000000 )
                  (  0.8660254  0.5000000  0.0000000 )       (  0.2886751 )
                  (  0.0000000  0.0000000 -1.0000000 )       (  0.0000000 )


      isym = 21     inv. 180 deg rotation - cryst. axis [1,-1,0] 

 cryst.   s(21) = (     0          1          0      )    f =( -0.3333333 )
                  (     1          0          0      )       (  0.3333333 )
                  (     0          0          1      )       (  0.0000000 )

 cart.    s(21) = ( -0.5000000  0.8660254  0.0000000 )    f =( -0.5000000 )
                  (  0.8660254  0.5000000  0.0000000 )       (  0.2886751 )
                  (  0.0000000  0.0000000  1.0000000 )       (  0.0000000 )


      isym = 22     inv. 180 deg rotation - cryst. axis [2,1,0]  

 cryst.   s(22) = (    -1         -1          0      )    f =( -0.3333333 )
                  (     0          1          0      )       (  0.3333333 )
                  (     0          0          1      )       (  0.0000000 )

 cart.    s(22) = ( -0.5000000 -0.8660254  0.0000000 )    f =( -0.5000000 )
                  ( -0.8660254  0.5000000  0.0000000 )       (  0.2886751 )
                  (  0.0000000  0.0000000  1.0000000 )       (  0.0000000 )


      isym = 23     inv. 180 deg rotation - cryst. axis [0,1,0]  

 cryst.   s(23) = (     1          1          0      )
                  (     0         -1          0      )
                  (     0          0          1      )

 cart.    s(23) = (  0.5000000  0.8660254  0.0000000 )
                  (  0.8660254 -0.5000000  0.0000000 )
                  (  0.0000000  0.0000000  1.0000000 )


      isym = 24     inv. 180 deg rotation - cryst. axis [1,1,0]  

 cryst.   s(24) = (     0         -1          0      )
                  (    -1          0          0      )
                  (     0          0          1      )

 cart.    s(24) = (  0.5000000 -0.8660254  0.0000000 )
                  ( -0.8660254 -0.5000000  0.0000000 )
                  (  0.0000000  0.0000000  1.0000000 )


     point group D_6h(6/mmm)
     there are 12 classes
     the character table:

       E     2C6   2C3   C2    3C2'  3C2'' i     2S3   2S6   s_h   3s_d  3s_v 
A_1g   1.00  1.00  1.00  1.00  1.00  1.00  1.00  1.00  1.00  1.00  1.00  1.00
A_2g   1.00  1.00  1.00  1.00 -1.00 -1.00  1.00  1.00  1.00  1.00 -1.00 -1.00
B_1g   1.00 -1.00  1.00 -1.00  1.00 -1.00  1.00 -1.00  1.00 -1.00  1.00 -1.00
B_2g   1.00 -1.00  1.00 -1.00 -1.00  1.00  1.00 -1.00  1.00 -1.00 -1.00  1.00
E_1g   2.00  1.00 -1.00 -2.00  0.00  0.00  2.00  1.00 -1.00 -2.00  0.00  0.00
E_2g   2.00 -1.00 -1.00  2.00  0.00  0.00  2.00 -1.00 -1.00  2.00  0.00  0.00
A_1u   1.00  1.00  1.00  1.00  1.00  1.00 -1.00 -1.00 -1.00 -1.00 -1.00 -1.00
A_2u   1.00  1.00  1.00  1.00 -1.00 -1.00 -1.00 -1.00 -1.00 -1.00  1.00  1.00
B_1u   1.00 -1.00  1.00 -1.00  1.00 -1.00 -1.00  1.00 -1.00  1.00 -1.00  1.00
B_2u   1.00 -1.00  1.00 -1.00 -1.00  1.00 -1.00  1.00 -1.00  1.00  1.00 -1.00
E_1u   2.00  1.00 -1.00 -2.00  0.00  0.00 -2.00 -1.00  1.00  2.00  0.00  0.00
E_2u   2.00 -1.00 -1.00  2.00  0.00  0.00 -2.00  1.00  1.00 -2.00  0.00  0.00

     the symmetry operations in each class and the name of the first element:

     E        1
          identity                                               
     2C6      5    6
           60 deg rotation - cryst. axis [0,0,1]                 
     2C3      7    8
          120 deg rotation - cryst. axis [0,0,1]                 
     C2       2
          180 deg rotation - cart. axis [0,0,1]                  
     3C2'     4   12   11
          180 deg rotation - cart. axis [1,0,0]                  
     3C2''    3    9   10
          180 deg rotation - cart. axis [0,1,0]                  
     i       13
          inversion                                              
     2S3     17   18
          inv.  60 deg rotation - cryst. axis [0,0,1]            
     2S6     19   20
          inv. 120 deg rotation - cryst. axis [0,0,1]            
     s_h     14
          inv. 180 deg rotation - cart. axis [0,0,1]             
     3s_d    16   24   23
          inv. 180 deg rotation - cart. axis [1,0,0]             
     3s_v    15   21   22
          inv. 180 deg rotation - cart. axis [0,1,0]             

   Cartesian axes

     site n.     atom                  positions (alat units)
         1           C   tau(   1) = (   0.0000000   0.0000000   0.0000000  )
         2           C   tau(   2) = (   0.0000000   0.5773503   0.0000000  )

   Crystallographic axes

     site n.     atom                  positions (cryst. coord.)
         1           C   tau(   1) = (  0.0000000  0.0000000  0.0000000  )
         2           C   tau(   2) = (  0.3333333  0.6666667  0.0000000  )

     number of k points=    21  Marzari-Vanderbilt smearing, width (Ry)=  0.0010
                       cart. coord. in units 2pi/alat
        k(    1) = (   0.0000000   0.0000000   0.0000000), wk =   0.0118343
        k(    2) = (   0.0000000   0.0888231   0.0000000), wk =   0.0710059
        k(    3) = (   0.0000000   0.1776462   0.0000000), wk =   0.0710059
        k(    4) = (   0.0000000   0.2664694   0.0000000), wk =   0.0710059
        k(    5) = (   0.0000000   0.3552925   0.0000000), wk =   0.0710059
        k(    6) = (   0.0000000   0.4441156   0.0000000), wk =   0.0710059
        k(    7) = (   0.0000000   0.5329387   0.0000000), wk =   0.0710059
        k(    8) = (   0.0769231   0.1332347   0.0000000), wk =   0.0710059
        k(    9) = (   0.0769231   0.2220578   0.0000000), wk =   0.1420118
        k(   10) = (   0.0769231   0.3108809   0.0000000), wk =   0.1420118
        k(   11) = (   0.0769231   0.3997040   0.0000000), wk =   0.1420118
        k(   12) = (   0.0769231   0.4885272   0.0000000), wk =   0.1420118
        k(   13) = (   0.0769231   0.5773503   0.0000000), wk =   0.0710059
        k(   14) = (   0.1538462   0.2664694   0.0000000), wk =   0.0710059
        k(   15) = (   0.1538462   0.3552925   0.0000000), wk =   0.1420118
        k(   16) = (   0.1538462   0.4441156   0.0000000), wk =   0.1420118
        k(   17) = (   0.1538462   0.5329387   0.0000000), wk =   0.1420118
        k(   18) = (   0.2307692   0.3997040   0.0000000), wk =   0.0710059
        k(   19) = (   0.2307692   0.4885272   0.0000000), wk =   0.1420118
        k(   20) = (   0.2307692   0.5773503   0.0000000), wk =   0.0710059
        k(   21) = (   0.3076923   0.5329387   0.0000000), wk =   0.0710059

                       cryst. coord.
        k(    1) = (   0.0000000   0.0000000   0.0000000), wk =   0.0118343
        k(    2) = (   0.0000000   0.0769231   0.0000000), wk =   0.0710059
        k(    3) = (   0.0000000   0.1538462   0.0000000), wk =   0.0710059
        k(    4) = (   0.0000000   0.2307692   0.0000000), wk =   0.0710059
        k(    5) = (   0.0000000   0.3076923   0.0000000), wk =   0.0710059
        k(    6) = (   0.0000000   0.3846154   0.0000000), wk =   0.0710059
        k(    7) = (   0.0000000   0.4615385   0.0000000), wk =   0.0710059
        k(    8) = (   0.0769231   0.0769231   0.0000000), wk =   0.0710059
        k(    9) = (   0.0769231   0.1538462   0.0000000), wk =   0.1420118
        k(   10) = (   0.0769231   0.2307692   0.0000000), wk =   0.1420118
        k(   11) = (   0.0769231   0.3076923   0.0000000), wk =   0.1420118
        k(   12) = (   0.0769231   0.3846154   0.0000000), wk =   0.1420118
        k(   13) = (   0.0769231   0.4615385   0.0000000), wk =   0.0710059
        k(   14) = (   0.1538462   0.1538462   0.0000000), wk =   0.0710059
        k(   15) = (   0.1538462   0.2307692   0.0000000), wk =   0.1420118
        k(   16) = (   0.1538462   0.3076923   0.0000000), wk =   0.1420118
        k(   17) = (   0.1538462   0.3846154   0.0000000), wk =   0.1420118
        k(   18) = (   0.2307692   0.2307692   0.0000000), wk =   0.0710059
        k(   19) = (   0.2307692   0.3076923   0.0000000), wk =   0.1420118
        k(   20) = (   0.2307692   0.3846154   0.0000000), wk =   0.0710059
        k(   21) = (   0.3076923   0.3076923   0.0000000), wk =   0.0710059

     Dense  grid:    65089 G-vectors     FFT dimensions: (  36,  36, 135)

     Smooth grid:    28157 G-vectors     FFT dimensions: (  27,  27, 108)

     Dynamical RAM for                 wfc:       0.07 MB

     Dynamical RAM for     wfc (w. buffer):       1.57 MB

     Dynamical RAM for           str. fact:       0.17 MB

     Dynamical RAM for           local pot:       0.00 MB

     Dynamical RAM for          nlocal pot:       0.14 MB

     Dynamical RAM for                qrad:       0.38 MB

     Dynamical RAM for          rho,v,vnew:       1.18 MB

     Dynamical RAM for               rhoin:       0.39 MB

     Dynamical RAM for            rho*nmix:       2.65 MB

     Dynamical RAM for           G-vectors:       0.66 MB

     Dynamical RAM for          h,s,v(r/c):       0.05 MB

     Dynamical RAM for          <psi|beta>:       0.00 MB

     Dynamical RAM for                 psi:       0.29 MB

     Dynamical RAM for                hpsi:       0.29 MB

     Dynamical RAM for                spsi:       0.29 MB

     Dynamical RAM for      wfcinit/wfcrot:       0.14 MB

     Dynamical RAM for           addusdens:       7.45 MB

     Estimated static dynamical RAM per process >       8.60 MB

     Estimated max dynamical RAM per process >      16.05 MB

     Estimated total dynamical RAM >      96.28 MB

     Check: negative core charge=   -0.000002

     Initial potential from superposition of free atoms

     starting charge    7.99992, renormalised to    8.00000

     negative rho (up, down):  3.590E-06 0.000E+00
     Starting wfcs are    8 randomized atomic wfcs

     total cpu time spent up to now is        0.8 secs

     Self-consistent Calculation

     iteration #  1     ecut=    70.00 Ry     beta= 0.70
     Davidson diagonalization with overlap
     ethr =  1.00E-02,  avg # of iterations =  5.3

     negative rho (up, down):  1.549E-05 0.000E+00

     total cpu time spent up to now is        1.3 secs

     total energy              =     -24.82574137 Ry
     Harris-Foulkes estimate   =     -24.94843507 Ry
     estimated scf accuracy    <       0.20406997 Ry

     iteration #  2     ecut=    70.00 Ry     beta= 0.70
     Davidson diagonalization with overlap
     ethr =  2.55E-03,  avg # of iterations =  3.3

     negative rho (up, down):  2.471E-05 0.000E+00

     total cpu time spent up to now is        1.6 secs

     total energy              =     -24.85771165 Ry
     Harris-Foulkes estimate   =     -24.85793224 Ry
     estimated scf accuracy    <       0.00254983 Ry

     iteration #  3     ecut=    70.00 Ry     beta= 0.70
     Davidson diagonalization with overlap
     ethr =  3.19E-05,  avg # of iterations =  4.6

     negative rho (up, down):  3.238E-05 0.000E+00

     total cpu time spent up to now is        2.1 secs

     total energy              =     -24.85799973 Ry
     Harris-Foulkes estimate   =     -24.85797726 Ry
     estimated scf accuracy    <       0.00016023 Ry

     iteration #  4     ecut=    70.00 Ry     beta= 0.70
     Davidson diagonalization with overlap
     ethr =  2.00E-06,  avg # of iterations =  2.4

     negative rho (up, down):  3.310E-05 0.000E+00

     total cpu time spent up to now is        2.4 secs

     End of self-consistent calculation

          k = 0.0000 0.0000 0.0000 (  3519 PWs)   bands (ev):

   -19.9965  -8.0948  -3.5176  -3.5176   2.6355   4.2430   5.3849   7.9035

     occupation numbers 
     1.0000   1.0000   1.0000   1.0000   0.0000   0.0000   0.0000   0.0000

          k = 0.0000 0.0888 0.0000 (  3495 PWs)   bands (ev):

   -19.8567  -7.9272  -4.0758  -3.8099   2.8265   4.4322   5.5729   7.9675

     occupation numbers 
     1.0000   1.0000   1.0000   1.0000   0.0000   0.0000   0.0000   0.0000

          k = 0.0000 0.1776 0.0000 (  3499 PWs)   bands (ev):

   -19.4387  -7.4283  -5.5122  -4.5165   3.3995   4.9977   6.1364   7.9571

     occupation numbers 
     1.0000   1.0000   1.0000   1.0000   0.0000   0.0000   0.0000   0.0000

          k = 0.0000 0.2665 0.0000 (  3499 PWs)   bands (ev):

   -18.7465  -7.4020  -6.6114  -5.3390   4.3533   5.9211   7.0584   7.3651

     occupation numbers 
     1.0000   1.0000   1.0000   1.0000   0.0000   0.0000   0.0000   0.0000

          k = 0.0000 0.3553 0.0000 (  3509 PWs)   bands (ev):

   -17.7882  -9.4354  -6.0699  -5.5086   5.1860   5.6836   7.2893   7.3970

     occupation numbers 
     1.0000   1.0000   1.0000   1.0000   0.0000   0.0000   0.0000   0.0000

          k = 0.0000 0.4441 0.0000 (  3504 PWs)   bands (ev):

   -16.5810 -11.4280  -6.5997  -4.2070   3.1071   7.1065   7.4395   8.9445

     occupation numbers 
     1.0000   1.0000   1.0000   1.0000   0.0000   0.0000   0.0000   0.0000

          k = 0.0000 0.5329 0.0000 (  3518 PWs)   bands (ev):

   -15.1988 -13.2206  -6.8753  -3.0342   1.5093   7.0034   9.4682  10.9251

     occupation numbers 
     1.0000   1.0000   1.0000   1.0000   0.0000   0.0000   0.0000   0.0000

          k = 0.0769 0.1332 0.0000 (  3507 PWs)   bands (ev):

   -19.5778  -7.5939  -4.9887  -4.3949   3.2086   4.8097   5.9494   8.2162

     occupation numbers 
     1.0000   1.0000   1.0000   1.0000   0.0000   0.0000   0.0000   0.0000

          k = 0.0769 0.2221 0.0000 (  3485 PWs)   bands (ev):

   -19.0228  -6.9353  -6.5216  -5.2924   3.9725   5.5599   6.7018   8.0888

     occupation numbers 
     1.0000   1.0000   1.0000   1.0000   0.0000   0.0000   0.0000   0.0000

          k = 0.0769 0.3109 0.0000 (  3503 PWs)   bands (ev):

   -18.1975  -8.4118  -6.1422  -5.9720   5.1159   6.0924   6.7374   7.7873

     occupation numbers 
     1.0000   1.0000   1.0000   1.0000   0.0000   0.0000   0.0000   0.0000

          k = 0.0769 0.3997 0.0000 (  3507 PWs)   bands (ev):

   -17.1138 -10.3933  -6.8047  -4.7543   4.0509   6.6314   7.8804   8.1850

     occupation numbers 
     1.0000   1.0000   1.0000   1.0000   0.0000   0.0000   0.0000   0.0000

          k = 0.0769 0.4885 0.0000 (  3514 PWs)   bands (ev):

   -15.8024 -12.2891  -7.2201  -3.4398   2.1586   7.6652   8.5386   9.9881

     occupation numbers 
     1.0000   1.0000   1.0000   1.0000   0.0000   0.0000   0.0000   0.0000

          k = 0.0769 0.5774 0.0000 (  3526 PWs)   bands (ev):

   -14.6554 -13.6375  -7.3613  -2.6884   1.2035   7.6013  10.6846  10.8268

     occupation numbers 
     1.0000   1.0000   1.0000   1.0000   0.0000   0.0000   0.0000   0.0000

          k = 0.1538 0.2665 0.0000 (  3492 PWs)   bands (ev):

   -18.3346  -7.7732  -6.5015  -6.1281   4.9266   6.4898   6.5221   7.6467

     occupation numbers 
     1.0000   1.0000   1.0000   1.0000   0.0000   0.0000   0.0000   0.0000

          k = 0.1538 0.3553 0.0000 (  3505 PWs)   bands (ev):

   -17.3835  -9.3803  -7.5162  -5.0373   4.7082   6.2574   7.7704   8.9442

     occupation numbers 
     1.0000   1.0000   1.0000   1.0000   0.0000   0.0000   0.0000   0.0000

          k = 0.1538 0.4441 0.0000 (  3499 PWs)   bands (ev):

   -16.1888 -11.1857  -8.1507  -3.7412   2.8447   7.9544   9.3487   9.3651

     occupation numbers 
     1.0000   1.0000   1.0000   1.0000   0.0000   0.0000   0.0000   0.0000

          k = 0.1538 0.5329 0.0000 (  3517 PWs)   bands (ev):

   -14.8288 -12.8941  -8.4584  -2.5392   1.3289   9.2161  10.0132  10.9649

     occupation numbers 
     1.0000   1.0000   1.0000   1.0000   0.0000   0.0000   0.0000   0.0000

          k = 0.2308 0.3997 0.0000 (  3504 PWs)   bands (ev):

   -16.3200 -10.4222  -8.8942  -3.8502   3.1546   7.7683   9.1086  10.4404

     occupation numbers 
     1.0000   1.0000   1.0000   1.0000   0.0000   0.0000   0.0000   0.0000

          k = 0.2308 0.4885 0.0000 (  3510 PWs)   bands (ev):

   -15.0445 -11.8171  -9.6774  -2.5262   1.5965   9.6238  10.3255  11.3439

     occupation numbers 
     1.0000   1.0000   1.0000   1.0000   0.0000   0.0000   0.0000   0.0000

          k = 0.2308 0.5774 0.0000 (  3522 PWs)   bands (ev):

   -13.9393 -13.0170  -9.8965  -1.6708   0.6589  10.6488  11.2344  11.6245

     occupation numbers 
     1.0000   1.0000   1.0000   1.0000   0.0000   0.0000   0.0000   0.0000

          k = 0.3077 0.5329 0.0000 (  3522 PWs)   bands (ev):

   -13.7733 -12.5166 -10.8097  -1.2238   0.3187  10.2746  11.5226  12.5897

     occupation numbers 
     1.0000   1.0000   1.0000   1.0000   0.0000   0.0000   0.0000   0.0000

     the Fermi energy is    -0.6433 ev

!    total energy              =     -24.85800694 Ry
     Harris-Foulkes estimate   =     -24.85800637 Ry
     estimated scf accuracy    <       0.00000051 Ry

     The total energy is the sum of the following terms:

     one-electron contribution =     -90.72011597 Ry
     hartree contribution      =      47.20727848 Ry
     xc contribution           =      -9.28107990 Ry
     ewald contribution        =      27.93591045 Ry
     smearing contrib. (-TS)   =       0.00000000 Ry

     convergence has been achieved in   4 iterations

     Writing output data file gr-13.save/

     init_run     :      0.48s CPU      0.50s WALL (       1 calls)
     electrons    :      1.55s CPU      1.64s WALL (       1 calls)

     Called by init_run:
     wfcinit      :      0.10s CPU      0.10s WALL (       1 calls)
     wfcinit:atom :      0.00s CPU      0.00s WALL (      21 calls)
     wfcinit:wfcr :      0.09s CPU      0.09s WALL (      21 calls)
     potinit      :      0.11s CPU      0.11s WALL (       1 calls)
     hinit0       :      0.19s CPU      0.19s WALL (       1 calls)

     Called by electrons:
     c_bands      :      1.21s CPU      1.28s WALL (       4 calls)
     sum_band     :      0.22s CPU      0.23s WALL (       4 calls)
     v_of_rho     :      0.09s CPU      0.09s WALL (       5 calls)
     v_h          :      0.01s CPU      0.01s WALL (       5 calls)
     v_xc         :      0.09s CPU      0.09s WALL (       5 calls)
     newd         :      0.04s CPU      0.05s WALL (       5 calls)
     mix_rho      :      0.01s CPU      0.01s WALL (       4 calls)

     Called by c_bands:
     init_us_2    :      0.02s CPU      0.02s WALL (     189 calls)
     cegterg      :      1.17s CPU      1.24s WALL (      84 calls)

     Called by sum_band:
     sum_band:bec :      0.00s CPU      0.00s WALL (      84 calls)
     addusdens    :      0.03s CPU      0.03s WALL (       4 calls)

     Called by *egterg:
     h_psi        :      0.99s CPU      1.05s WALL (     432 calls)
     s_psi        :      0.03s CPU      0.03s WALL (     432 calls)
     g_psi        :      0.01s CPU      0.01s WALL (     327 calls)
     cdiaghg      :      0.05s CPU      0.05s WALL (     411 calls)
     cegterg:over :      0.09s CPU      0.09s WALL (     327 calls)
     cegterg:upda :      0.03s CPU      0.04s WALL (     327 calls)
     cegterg:last :      0.01s CPU      0.02s WALL (      85 calls)

     Called by h_psi:
     h_psi:pot    :      0.99s CPU      1.05s WALL (     432 calls)
     h_psi:calbec :      0.05s CPU      0.05s WALL (     432 calls)
     vloc_psi     :      0.90s CPU      0.96s WALL (     432 calls)
     add_vuspsi   :      0.03s CPU      0.03s WALL (     432 calls)

     General routines
     calbec       :      0.07s CPU      0.07s WALL (     516 calls)
     fft          :      0.06s CPU      0.07s WALL (      63 calls)
     ffts         :      0.00s CPU      0.00s WALL (       9 calls)
     fftw         :      0.96s CPU      1.02s WALL (    4910 calls)
     interpolate  :      0.01s CPU      0.01s WALL (       5 calls)

     Parallel routines
     fft_scatt_xy :      0.07s CPU      0.08s WALL (    4982 calls)
     fft_scatt_yz :      0.44s CPU      0.47s WALL (    4982 calls)

     PWSCF        :      2.33s CPU      2.46s WALL


   This run was terminated on:  22: 5:25  17Mar2022            

=------------------------------------------------------------------------------=
   JOB DONE.
=------------------------------------------------------------------------------=
