
     Program PWSCF v.6.4.1 starts on  3Jan2023 at 22:32:52 

     This program is part of the open-source Quantum ESPRESSO suite
     for quantum simulation of materials; please cite
         "P. Giannozzi et al., J. Phys.:Condens. Matter 21 395502 (2009);
         "P. Giannozzi et al., J. Phys.:Condens. Matter 29 465901 (2017);
          URL http://www.quantum-espresso.org", 
     in publications or presentations arising from this work. More details at
     http://www.quantum-espresso.org/quote

     Parallel version (MPI), running on     6 processors

     MPI processes distributed on     1 nodes
     R & G space division:  proc/nbgrp/npool/nimage =       6
     Reading input from distance-1.8.in

     Current dimensions of program PWSCF are:
     Max number of different atomic species (ntypx) = 10
     Max number of k-points (npk) =  40000
     Max angular momentum in pseudopotentials (lmaxx) =  3

     IMPORTANT: XC functional enforced from input :
     Exchange-correlation      = RVV10 ( 1  4 13  4 3 0)
     Any further DFT definition will be discarded
     Please, verify this is what you really want

               file H.pbe-rrkjus.UPF: wavefunction(s)  1S renormalized

     Subspace diagonalization in iterative solution of the eigenvalue problem:
     a serial algorithm will be used


     Parallelization info
     --------------------
     sticks:   dense  smooth     PW     G-vecs:    dense   smooth      PW
     Min        3051    1746    432               270999   117096   14629
     Max        3053    1747    437               271001   117099   14630
     Sum       18313   10477   2611              1626001   702581   87777



     bravais-lattice index     =            4
     lattice parameter (alat)  =      23.2937  a.u.
     unit-cell volume          =    8879.8548 (a.u.)^3
     number of atoms/cell      =           52
     number of atomic types    =            3
     number of electrons       =       216.00
     number of Kohn-Sham states=          130
     kinetic-energy cutoff     =      70.0000  Ry
     charge density cutoff     =     490.0000  Ry
     convergence threshold     =      1.0E-06
     mixing beta               =       0.7000
     number of iterations used =            8  plain     mixing
     Exchange-correlation      = RVV10 ( 1  4 13  4 3 0)

     celldm(1)=  23.293684  celldm(2)=   0.000000  celldm(3)=   0.811261
     celldm(4)=   0.000000  celldm(5)=   0.000000  celldm(6)=   0.000000

     crystal axes: (cart. coord. in units of alat)
               a(1) = (   1.000000   0.000000   0.000000 )  
               a(2) = (  -0.500000   0.866025   0.000000 )  
               a(3) = (   0.000000   0.000000   0.811261 )  

     reciprocal axes: (cart. coord. in units 2 pi/alat)
               b(1) = (  1.000000  0.577350 -0.000000 )  
               b(2) = (  0.000000  1.154701  0.000000 )  
               b(3) = (  0.000000 -0.000000  1.232649 )  


     PseudoPot. # 1 for H  read from file:
     /home/cristian/Escritorio/Proyecto_Grafeno/pseudopotenciales/H.pbe-rrkjus.UPF
     MD5 check sum: 7cc9d459525c9a0585f487a71c3c9563
     Pseudo is Ultrasoft, Zval =  1.0
     Generated by new atomic code, or converted to UPF format
     Using radial grid of 1061 points,  2 beta functions with: 
                l(1) =   0
                l(2) =   0
     Q(r) pseudized with 0 coefficients 


     PseudoPot. # 2 for C  read from file:
     /home/cristian/Escritorio/Proyecto_Grafeno/pseudopotenciales/C.pbe-n-rrkjus_psl.1.0.0.UPF
     MD5 check sum: 1fdd950c42eb37d8afe3dd2f8d12311e
     Pseudo is Ultrasoft + core correction, Zval =  4.0
     Generated using "atomic" code by A. Dal Corso v.6.3MaX
     Using radial grid of 1073 points,  4 beta functions with: 
                l(1) =   0
                l(2) =   0
                l(3) =   1
                l(4) =   1
     Q(r) pseudized with 0 coefficients 


     PseudoPot. # 3 for Ni read from file:
     /home/cristian/Escritorio/Proyecto_Grafeno/pseudopotenciales/Ni.pbe-spn-rrkjus_psl.1.0.0.UPF
     MD5 check sum: 8b3fc9aac6dafe35f580d41bb18c3945
     Pseudo is Ultrasoft + core correction, Zval = 18.0
     Generated using "atomic" code by A. Dal Corso v.6.3
     Using radial grid of 1195 points,  6 beta functions with: 
                l(1) =   0
                l(2) =   0
                l(3) =   1
                l(4) =   1
                l(5) =   2
                l(6) =   2
     Q(r) pseudized with 0 coefficients 


     vdW kernel table read from file rVV10_kernel_table
     MD5 check sum: b8e2538accc0c0b3206b45ba4daaba6c

     atomic species   valence    mass     pseudopotential
        H              1.00     1.00794     H ( 1.00)
        C              4.00    12.01070     C ( 1.00)
        Ni            18.00    58.69340     Ni( 1.00)

     Starting magnetic structure 
     atomic species   magnetization
        H            0.500
        C            0.300
        Ni           0.800

     No symmetry found


                                    s                        frac. trans.

      isym =  1     identity                                     

 cryst.   s( 1) = (     1          0          0      )
                  (     0          1          0      )
                  (     0          0          1      )

 cart.    s( 1) = (  1.0000000  0.0000000  0.0000000 )
                  (  0.0000000  1.0000000  0.0000000 )
                  (  0.0000000  0.0000000  1.0000000 )


     point group C_1 (1)    
     there are  1 classes
     the character table:

       E    
A      1.00

     the symmetry operations in each class and the name of the first element:

     E        1
          identity                                               

   Cartesian axes

     site n.     atom                  positions (alat units)
         1           H   tau(   1) = (   0.2694937   0.4041452   0.1460270  )
         2           H   tau(   2) = (   0.3305063   0.4041452   0.1460270  )
         3           C   tau(   3) = (   0.0000000   0.0000000   0.0000000  )
         4           C   tau(   4) = (   0.0000000   0.1154701   0.0000000  )
         5           C   tau(   5) = (  -0.1000000   0.1732051   0.0000000  )
         6           C   tau(   6) = (  -0.1000000   0.2886751   0.0000000  )
         7           C   tau(   7) = (  -0.2000000   0.3464102   0.0000000  )
         8           C   tau(   8) = (  -0.2000000   0.4618802   0.0000000  )
         9           C   tau(   9) = (  -0.3000000   0.5196152   0.0000000  )
        10           C   tau(  10) = (  -0.3000000   0.6350853   0.0000000  )
        11           C   tau(  11) = (  -0.4000000   0.6928203   0.0000000  )
        12           C   tau(  12) = (  -0.4000000   0.8082904   0.0000000  )
        13           C   tau(  13) = (   0.2000000   0.0000000   0.0000000  )
        14           C   tau(  14) = (   0.2000000   0.1154701   0.0000000  )
        15           C   tau(  15) = (   0.1000000   0.1732051   0.0000000  )
        16           C   tau(  16) = (   0.1000000   0.2886751   0.0000000  )
        17           C   tau(  17) = (   0.0000000   0.3464102   0.0000000  )
        18           C   tau(  18) = (   0.0000000   0.4618802   0.0000000  )
        19           C   tau(  19) = (  -0.1000000   0.5196152   0.0000000  )
        20           C   tau(  20) = (  -0.1000000   0.6350853   0.0000000  )
        21           C   tau(  21) = (  -0.2000000   0.6928203   0.0000000  )
        22           C   tau(  22) = (  -0.2000000   0.8082904   0.0000000  )
        23           C   tau(  23) = (   0.4000000   0.0000000   0.0000000  )
        24           C   tau(  24) = (   0.4000000   0.1154701   0.0000000  )
        25           C   tau(  25) = (   0.3000000   0.1732051   0.0000000  )
        26           C   tau(  26) = (   0.3000000   0.2886751   0.0000000  )
        27           C   tau(  27) = (   0.2000000   0.3464102   0.0000000  )
        28           Ni  tau(  28) = (   0.2000000   0.4618802   0.0000000  )
        29           C   tau(  29) = (   0.1000000   0.5196152   0.0000000  )
        30           C   tau(  30) = (   0.1000000   0.6350853   0.0000000  )
        31           C   tau(  31) = (   0.0000000   0.6928203   0.0000000  )
        32           C   tau(  32) = (   0.0000000   0.8082904   0.0000000  )
        33           C   tau(  33) = (   0.6000000   0.0000000   0.0000000  )
        34           C   tau(  34) = (   0.6000000   0.1154701   0.0000000  )
        35           C   tau(  35) = (   0.5000000   0.1732051   0.0000000  )
        36           C   tau(  36) = (   0.5000000   0.2886751   0.0000000  )
        37           C   tau(  37) = (   0.4000000   0.3464102   0.0000000  )
        38           C   tau(  38) = (   0.4000000   0.4618802   0.0000000  )
        39           C   tau(  39) = (   0.3000000   0.5196152   0.0000000  )
        40           C   tau(  40) = (   0.3000000   0.6350853   0.0000000  )
        41           C   tau(  41) = (   0.2000000   0.6928203   0.0000000  )
        42           C   tau(  42) = (   0.2000000   0.8082904   0.0000000  )
        43           C   tau(  43) = (   0.8000000   0.0000000   0.0000000  )
        44           C   tau(  44) = (   0.8000000   0.1154701   0.0000000  )
        45           C   tau(  45) = (   0.7000000   0.1732051   0.0000000  )
        46           C   tau(  46) = (   0.7000000   0.2886751   0.0000000  )
        47           C   tau(  47) = (   0.6000000   0.3464102   0.0000000  )
        48           C   tau(  48) = (   0.6000000   0.4618802   0.0000000  )
        49           C   tau(  49) = (   0.5000000   0.5196152   0.0000000  )
        50           C   tau(  50) = (   0.5000000   0.6350853   0.0000000  )
        51           C   tau(  51) = (   0.4000000   0.6928203   0.0000000  )
        52           C   tau(  52) = (   0.4000000   0.8082904   0.0000000  )

   Crystallographic axes

     site n.     atom                  positions (cryst. coord.)
         1           H   tau(   1) = (  0.5028270  0.4666667  0.1800000  )
         2           H   tau(   2) = (  0.5638397  0.4666667  0.1800000  )
         3           C   tau(   3) = (  0.0000000  0.0000000  0.0000000  )
         4           C   tau(   4) = (  0.0666667  0.1333333  0.0000000  )
         5           C   tau(   5) = (  0.0000000  0.2000000  0.0000000  )
         6           C   tau(   6) = (  0.0666667  0.3333333  0.0000000  )
         7           C   tau(   7) = (  0.0000000  0.4000000  0.0000000  )
         8           C   tau(   8) = (  0.0666667  0.5333333  0.0000000  )
         9           C   tau(   9) = (  0.0000000  0.6000000  0.0000000  )
        10           C   tau(  10) = (  0.0666667  0.7333333  0.0000000  )
        11           C   tau(  11) = (  0.0000000  0.8000000  0.0000000  )
        12           C   tau(  12) = (  0.0666667  0.9333333  0.0000000  )
        13           C   tau(  13) = (  0.2000000  0.0000000  0.0000000  )
        14           C   tau(  14) = (  0.2666667  0.1333333  0.0000000  )
        15           C   tau(  15) = (  0.2000000  0.2000000  0.0000000  )
        16           C   tau(  16) = (  0.2666667  0.3333333  0.0000000  )
        17           C   tau(  17) = (  0.2000000  0.4000000  0.0000000  )
        18           C   tau(  18) = (  0.2666667  0.5333333  0.0000000  )
        19           C   tau(  19) = (  0.2000000  0.6000000  0.0000000  )
        20           C   tau(  20) = (  0.2666667  0.7333333  0.0000000  )
        21           C   tau(  21) = (  0.2000000  0.8000000  0.0000000  )
        22           C   tau(  22) = (  0.2666667  0.9333333  0.0000000  )
        23           C   tau(  23) = (  0.4000000  0.0000000  0.0000000  )
        24           C   tau(  24) = (  0.4666667  0.1333333  0.0000000  )
        25           C   tau(  25) = (  0.4000000  0.2000000  0.0000000  )
        26           C   tau(  26) = (  0.4666667  0.3333333  0.0000000  )
        27           C   tau(  27) = (  0.4000000  0.4000000  0.0000000  )
        28           Ni  tau(  28) = (  0.4666667  0.5333333  0.0000000  )
        29           C   tau(  29) = (  0.4000000  0.6000000  0.0000000  )
        30           C   tau(  30) = (  0.4666667  0.7333333  0.0000000  )
        31           C   tau(  31) = (  0.4000000  0.8000000  0.0000000  )
        32           C   tau(  32) = (  0.4666667  0.9333333  0.0000000  )
        33           C   tau(  33) = (  0.6000000  0.0000000  0.0000000  )
        34           C   tau(  34) = (  0.6666667  0.1333333  0.0000000  )
        35           C   tau(  35) = (  0.6000000  0.2000000  0.0000000  )
        36           C   tau(  36) = (  0.6666667  0.3333333  0.0000000  )
        37           C   tau(  37) = (  0.6000000  0.4000000  0.0000000  )
        38           C   tau(  38) = (  0.6666667  0.5333333  0.0000000  )
        39           C   tau(  39) = (  0.6000000  0.6000000  0.0000000  )
        40           C   tau(  40) = (  0.6666667  0.7333333  0.0000000  )
        41           C   tau(  41) = (  0.6000000  0.8000000  0.0000000  )
        42           C   tau(  42) = (  0.6666667  0.9333333  0.0000000  )
        43           C   tau(  43) = (  0.8000000  0.0000000  0.0000000  )
        44           C   tau(  44) = (  0.8666667  0.1333333  0.0000000  )
        45           C   tau(  45) = (  0.8000000  0.2000000  0.0000000  )
        46           C   tau(  46) = (  0.8666667  0.3333333  0.0000000  )
        47           C   tau(  47) = (  0.8000000  0.4000000  0.0000000  )
        48           C   tau(  48) = (  0.8666667  0.5333333  0.0000000  )
        49           C   tau(  49) = (  0.8000000  0.6000000  0.0000000  )
        50           C   tau(  50) = (  0.8666667  0.7333333  0.0000000  )
        51           C   tau(  51) = (  0.8000000  0.8000000  0.0000000  )
        52           C   tau(  52) = (  0.8666667  0.9333333  0.0000000  )

     number of k points=     1  Marzari-Vanderbilt smearing, width (Ry)=  0.0010
                       cart. coord. in units 2pi/alat
        k(    1) = (   0.0000000   0.0000000   0.0000000), wk =   1.0000000

                       cryst. coord.
        k(    1) = (   0.0000000   0.0000000   0.0000000), wk =   1.0000000

     Dense  grid:  1626001 G-vectors     FFT dimensions: ( 180, 180, 135)

     Smooth grid:   702581 G-vectors     FFT dimensions: ( 125, 125, 108)

     Dynamical RAM for                 wfc:      29.03 MB

     Dynamical RAM for     wfc (w. buffer):      87.10 MB

     Dynamical RAM for           str. fact:      12.41 MB

     Dynamical RAM for           local pot:       0.00 MB

     Dynamical RAM for          nlocal pot:      92.46 MB

     Dynamical RAM for                qrad:      19.73 MB

     Dynamical RAM for          rho,v,vnew:      58.92 MB

     Dynamical RAM for               rhoin:      19.64 MB

     Dynamical RAM for            rho*nmix:     132.32 MB

     Dynamical RAM for           G-vectors:      16.40 MB

     Dynamical RAM for          h,s,v(r/c):      12.38 MB

     Dynamical RAM for          <psi|beta>:       0.82 MB

     Dynamical RAM for                 psi:     116.14 MB

     Dynamical RAM for                hpsi:     116.14 MB

     Dynamical RAM for                spsi:     116.14 MB

     Dynamical RAM for      wfcinit/wfcrot:      93.90 MB

     Dynamical RAM for           addusdens:     975.89 MB

     Estimated static dynamical RAM per process >     489.64 MB

     Estimated max dynamical RAM per process >       1.43 GB

     Estimated total dynamical RAM >       8.59 GB
     Generating pointlists ...
     new r_m :   0.0252 (alat units)  0.5862 (a.u.) for type    1
     new r_m :   0.0476 (alat units)  1.1095 (a.u.) for type    2
     new r_m :   0.0476 (alat units)  1.1095 (a.u.) for type    3

     Check: negative core charge=   -0.000002

     Initial potential from superposition of free atoms

     starting charge  215.80530, renormalised to  216.00000

     negative rho (up, down):  1.910E-04 2.111E-02


---------------------------------------------------------------------------------
Carrying out rVV10 run using the following parameters:
Nqs =      20    Nr_points =    1024   r_max =   100.000
b_value =  6.30000    beta =  0.00901
     q_mesh =  0.00010000  0.00030000  0.00058939  0.00100810
               0.00161396  0.00249058  0.00375900  0.00559430
               0.00824984  0.01209221  0.01765183  0.02569619
               0.03733578  0.05417739  0.07854596  0.11380545
               0.16482331  0.23864234  0.34545298  0.50000000

Gradients computed in Reciprocal space

---------------------------------------------------------------------------------


     Starting wfcs are  208 randomized atomic wfcs

     total cpu time spent up to now is       79.0 secs

     Self-consistent Calculation

     iteration #  1     ecut=    70.00 Ry     beta= 0.70
     Davidson diagonalization with overlap
     ethr =  1.00E-02,  avg # of iterations =  5.0

     negative rho (up, down):  3.820E-04 1.821E-02

     total cpu time spent up to now is      228.8 secs

     total energy              =    -946.58146511 Ry
     Harris-Foulkes estimate   =    -949.75962768 Ry
     estimated scf accuracy    <      14.46384077 Ry

     total magnetization       =     6.00 Bohr mag/cell
     absolute magnetization    =     6.72 Bohr mag/cell

     iteration #  2     ecut=    70.00 Ry     beta= 0.70
     Davidson diagonalization with overlap
     ethr =  6.70E-03,  avg # of iterations =  4.5

     negative rho (up, down):  2.245E-02 3.393E-01

     total cpu time spent up to now is      363.7 secs

     total energy              =    -951.35960850 Ry
     Harris-Foulkes estimate   =    -956.55854103 Ry
     estimated scf accuracy    <      43.79379380 Ry

     total magnetization       =     4.00 Bohr mag/cell
     absolute magnetization    =     9.51 Bohr mag/cell

     iteration #  3     ecut=    70.00 Ry     beta= 0.70
     Davidson diagonalization with overlap
     ethr =  6.70E-03,  avg # of iterations =  3.0

     negative rho (up, down):  2.161E-02 5.512E-01

     total cpu time spent up to now is      485.0 secs

     total energy              =    -948.33169002 Ry
     Harris-Foulkes estimate   =    -964.68344385 Ry
     estimated scf accuracy    <     717.21490899 Ry

     total magnetization       =     0.00 Bohr mag/cell
     absolute magnetization    =    39.56 Bohr mag/cell

     iteration #  4     ecut=    70.00 Ry     beta= 0.70
     Davidson diagonalization with overlap
     ethr =  6.70E-03,  avg # of iterations =  4.0

     negative rho (up, down):  3.088E-03 5.158E-01

     total cpu time spent up to now is      608.7 secs

     total energy              =    -946.07133641 Ry
     Harris-Foulkes estimate   =    -953.39510858 Ry
     estimated scf accuracy    <     115.73595481 Ry

     total magnetization       =     0.00 Bohr mag/cell
     absolute magnetization    =    16.19 Bohr mag/cell

     iteration #  5     ecut=    70.00 Ry     beta= 0.70
     Davidson diagonalization with overlap
     ethr =  6.70E-03,  avg # of iterations =  3.0

     negative rho (up, down):  8.448E-02 3.761E-01

     total cpu time spent up to now is      744.7 secs

     total energy              =    -955.20827295 Ry
     Harris-Foulkes estimate   =    -953.95147015 Ry
     estimated scf accuracy    <     165.89747468 Ry

     total magnetization       =     2.00 Bohr mag/cell
     absolute magnetization    =    20.11 Bohr mag/cell

     iteration #  6     ecut=    70.00 Ry     beta= 0.70
     Davidson diagonalization with overlap
     ethr =  6.70E-03,  avg # of iterations =  2.0

     negative rho (up, down):  8.257E-02 4.689E-01

     total cpu time spent up to now is      850.7 secs

     total energy              =    -948.98697899 Ry
     Harris-Foulkes estimate   =    -955.66563265 Ry
     estimated scf accuracy    <     264.58450736 Ry

     total magnetization       =     2.00 Bohr mag/cell
     absolute magnetization    =    25.24 Bohr mag/cell

     iteration #  7     ecut=    70.00 Ry     beta= 0.70
     Davidson diagonalization with overlap
     ethr =  6.70E-03,  avg # of iterations =  2.0

     negative rho (up, down):  5.201E-02 4.481E-01

     total cpu time spent up to now is      975.1 secs

     total energy              =    -953.97730430 Ry
     Harris-Foulkes estimate   =    -952.43334849 Ry
     estimated scf accuracy    <      64.48907322 Ry

     total magnetization       =     2.00 Bohr mag/cell
     absolute magnetization    =    13.00 Bohr mag/cell

     iteration #  8     ecut=    70.00 Ry     beta= 0.70
     Davidson diagonalization with overlap
     ethr =  6.70E-03,  avg # of iterations =  2.0

     negative rho (up, down):  9.279E-02 4.713E-01

     total cpu time spent up to now is     1088.7 secs

     total energy              =    -947.20081201 Ry
     Harris-Foulkes estimate   =    -955.18868819 Ry
     estimated scf accuracy    <     229.02444676 Ry

     total magnetization       =     2.00 Bohr mag/cell
     absolute magnetization    =    23.58 Bohr mag/cell

     iteration #  9     ecut=    70.00 Ry     beta= 0.70
     Davidson diagonalization with overlap
     ethr =  6.70E-03,  avg # of iterations =  2.0

     negative rho (up, down):  4.802E-02 3.463E-01

     total cpu time spent up to now is     1215.7 secs

     total energy              =    -951.50315473 Ry
     Harris-Foulkes estimate   =    -951.67915635 Ry
     estimated scf accuracy    <       3.47511468 Ry

     total magnetization       =     0.00 Bohr mag/cell
     absolute magnetization    =     1.90 Bohr mag/cell

     iteration # 10     ecut=    70.00 Ry     beta= 0.70
     Davidson diagonalization with overlap
     ethr =  1.61E-03,  avg # of iterations =  2.0

     negative rho (up, down):  5.934E-02 1.662E-01

     total cpu time spent up to now is     1327.7 secs

     total energy              =    -951.74915521 Ry
     Harris-Foulkes estimate   =    -951.84822852 Ry
     estimated scf accuracy    <       7.81196032 Ry

     total magnetization       =     0.00 Bohr mag/cell
     absolute magnetization    =     3.88 Bohr mag/cell

     iteration # 11     ecut=    70.00 Ry     beta= 0.70
     Davidson diagonalization with overlap
     ethr =  1.61E-03,  avg # of iterations =  1.5

     negative rho (up, down):  4.289E-02 2.643E-01

     total cpu time spent up to now is     1438.3 secs

     total energy              =    -951.72057883 Ry
     Harris-Foulkes estimate   =    -951.87782540 Ry
     estimated scf accuracy    <       4.45387097 Ry

     total magnetization       =    -0.00 Bohr mag/cell
     absolute magnetization    =     2.68 Bohr mag/cell

     iteration # 12     ecut=    70.00 Ry     beta= 0.70
     Davidson diagonalization with overlap
     ethr =  1.61E-03,  avg # of iterations =  2.0

     negative rho (up, down):  2.855E-02 1.658E-01

     total cpu time spent up to now is     1551.8 secs

     total energy              =    -951.77836261 Ry
     Harris-Foulkes estimate   =    -951.81725026 Ry
     estimated scf accuracy    <       0.66312902 Ry

     total magnetization       =    -0.00 Bohr mag/cell
     absolute magnetization    =     0.59 Bohr mag/cell

     iteration # 13     ecut=    70.00 Ry     beta= 0.70
     Davidson diagonalization with overlap
     ethr =  3.07E-04,  avg # of iterations =  5.0

     negative rho (up, down):  9.922E-03 8.360E-02

     total cpu time spent up to now is     1674.4 secs

     total energy              =    -951.78395582 Ry
     Harris-Foulkes estimate   =    -951.83297737 Ry
     estimated scf accuracy    <       0.66923938 Ry

     total magnetization       =    -0.00 Bohr mag/cell
     absolute magnetization    =     0.78 Bohr mag/cell

     iteration # 14     ecut=    70.00 Ry     beta= 0.70
     Davidson diagonalization with overlap
     ethr =  3.07E-04,  avg # of iterations =  5.0

     negative rho (up, down):  6.581E-03 1.101E-01

     total cpu time spent up to now is     1791.2 secs

     total energy              =    -951.79988019 Ry
     Harris-Foulkes estimate   =    -951.83234260 Ry
     estimated scf accuracy    <       0.27828746 Ry

     total magnetization       =     0.00 Bohr mag/cell
     absolute magnetization    =     0.46 Bohr mag/cell

     iteration # 15     ecut=    70.00 Ry     beta= 0.70
     Davidson diagonalization with overlap
     ethr =  1.29E-04,  avg # of iterations =  3.0

     negative rho (up, down):  2.580E-03 2.751E-01

     total cpu time spent up to now is     1913.4 secs

     total energy              =    -951.80140704 Ry
     Harris-Foulkes estimate   =    -951.83819143 Ry
     estimated scf accuracy    <       0.34474976 Ry

     total magnetization       =     0.00 Bohr mag/cell
     absolute magnetization    =     0.80 Bohr mag/cell

     iteration # 16     ecut=    70.00 Ry     beta= 0.70
     Davidson diagonalization with overlap
     ethr =  1.29E-04,  avg # of iterations =  2.0

     negative rho (up, down):  4.184E-03 3.319E-01

     total cpu time spent up to now is     2027.7 secs

     total energy              =    -951.78814766 Ry
     Harris-Foulkes estimate   =    -951.84633948 Ry
     estimated scf accuracy    <       1.69140663 Ry

     total magnetization       =     0.13 Bohr mag/cell
     absolute magnetization    =     2.08 Bohr mag/cell

     iteration # 17     ecut=    70.00 Ry     beta= 0.70
     Davidson diagonalization with overlap
     ethr =  1.29E-04,  avg # of iterations =  2.0

     negative rho (up, down):  1.554E-03 2.781E-01

     total cpu time spent up to now is     2140.2 secs

     total energy              =    -951.82169234 Ry
     Harris-Foulkes estimate   =    -951.81416184 Ry
     estimated scf accuracy    <       0.04895295 Ry

     total magnetization       =     0.00 Bohr mag/cell
     absolute magnetization    =     0.42 Bohr mag/cell

     iteration # 18     ecut=    70.00 Ry     beta= 0.70
     Davidson diagonalization with overlap
     ethr =  2.27E-05,  avg # of iterations =  3.5

     negative rho (up, down):  4.707E-03 3.489E-01

     total cpu time spent up to now is     2256.3 secs

     total energy              =    -951.77364315 Ry
     Harris-Foulkes estimate   =    -951.86163974 Ry
     estimated scf accuracy    <       2.49384361 Ry

     total magnetization       =     0.15 Bohr mag/cell
     absolute magnetization    =     2.50 Bohr mag/cell

     iteration # 19     ecut=    70.00 Ry     beta= 0.70
     Davidson diagonalization with overlap
     ethr =  2.27E-05,  avg # of iterations =  3.0

     negative rho (up, down):  3.453E-03 2.732E-01

     total cpu time spent up to now is     2368.4 secs

     total energy              =    -951.82053547 Ry
     Harris-Foulkes estimate   =    -951.81113637 Ry
     estimated scf accuracy    <       0.06198004 Ry

     total magnetization       =     0.00 Bohr mag/cell
     absolute magnetization    =     0.42 Bohr mag/cell

     iteration # 20     ecut=    70.00 Ry     beta= 0.70
     Davidson diagonalization with overlap
     ethr =  2.27E-05,  avg # of iterations =  2.5

     negative rho (up, down):  1.659E-02 2.413E-01

     total cpu time spent up to now is     2471.3 secs

     total energy              =    -951.82343176 Ry
     Harris-Foulkes estimate   =    -951.83428599 Ry
     estimated scf accuracy    <       0.84302115 Ry

     total magnetization       =     0.00 Bohr mag/cell
     absolute magnetization    =     1.16 Bohr mag/cell

     iteration # 21     ecut=    70.00 Ry     beta= 0.70
     Davidson diagonalization with overlap
     ethr =  2.27E-05,  avg # of iterations =  3.5

     negative rho (up, down):  9.614E-03 3.155E-01

     total cpu time spent up to now is     2570.7 secs

     total energy              =    -951.81385820 Ry
     Harris-Foulkes estimate   =    -951.82799285 Ry
     estimated scf accuracy    <       0.83474398 Ry

     total magnetization       =    -0.00 Bohr mag/cell
     absolute magnetization    =     1.41 Bohr mag/cell

     iteration # 22     ecut=    70.00 Ry     beta= 0.70
     Davidson diagonalization with overlap
     ethr =  2.27E-05,  avg # of iterations =  2.5

     negative rho (up, down):  8.729E-03 2.538E-01

     total cpu time spent up to now is     2670.6 secs

     total energy              =    -951.81054742 Ry
     Harris-Foulkes estimate   =    -951.82152432 Ry
     estimated scf accuracy    <       0.25867059 Ry

     total magnetization       =    -0.01 Bohr mag/cell
     absolute magnetization    =     0.60 Bohr mag/cell

     iteration # 23     ecut=    70.00 Ry     beta= 0.70
     Davidson diagonalization with overlap
     ethr =  2.27E-05,  avg # of iterations =  2.5

     negative rho (up, down):  2.558E-03 1.899E-01

     total cpu time spent up to now is     2770.8 secs

     total energy              =    -951.82035552 Ry
     Harris-Foulkes estimate   =    -951.81737275 Ry
     estimated scf accuracy    <       0.00391540 Ry

     total magnetization       =    -0.02 Bohr mag/cell
     absolute magnetization    =     0.08 Bohr mag/cell

     iteration # 24     ecut=    70.00 Ry     beta= 0.70
     Davidson diagonalization with overlap
     ethr =  1.81E-06,  avg # of iterations =  4.5

     negative rho (up, down):  1.496E-03 1.129E-01

     total cpu time spent up to now is     2877.5 secs

     total energy              =    -951.82134333 Ry
     Harris-Foulkes estimate   =    -951.82111564 Ry
     estimated scf accuracy    <       0.00249706 Ry

     total magnetization       =    -0.00 Bohr mag/cell
     absolute magnetization    =     0.08 Bohr mag/cell

     iteration # 25     ecut=    70.00 Ry     beta= 0.70
     Davidson diagonalization with overlap
     ethr =  1.16E-06,  avg # of iterations =  3.5

     negative rho (up, down):  1.617E-03 1.695E-02

     total cpu time spent up to now is     2983.1 secs

     total energy              =    -951.82153993 Ry
     Harris-Foulkes estimate   =    -951.82199414 Ry
     estimated scf accuracy    <       0.00596406 Ry

     total magnetization       =    -0.00 Bohr mag/cell
     absolute magnetization    =     0.06 Bohr mag/cell

     iteration # 26     ecut=    70.00 Ry     beta= 0.70
     Davidson diagonalization with overlap
     ethr =  1.16E-06,  avg # of iterations =  3.0

     negative rho (up, down):  1.288E-03 4.599E-02

     total cpu time spent up to now is     3082.8 secs

     total energy              =    -951.82203615 Ry
     Harris-Foulkes estimate   =    -951.82184968 Ry
     estimated scf accuracy    <       0.00150463 Ry

     total magnetization       =    -0.00 Bohr mag/cell
     absolute magnetization    =     0.09 Bohr mag/cell

     iteration # 27     ecut=    70.00 Ry     beta= 0.70
     Davidson diagonalization with overlap
     ethr =  6.97E-07,  avg # of iterations =  2.5

     negative rho (up, down):  1.344E-03 1.321E-01

     total cpu time spent up to now is     3179.0 secs

     total energy              =    -951.82175804 Ry
     Harris-Foulkes estimate   =    -951.82213898 Ry
     estimated scf accuracy    <       0.01042827 Ry

     total magnetization       =     0.00 Bohr mag/cell
     absolute magnetization    =     0.18 Bohr mag/cell

     iteration # 28     ecut=    70.00 Ry     beta= 0.70
     Davidson diagonalization with overlap
     ethr =  6.97E-07,  avg # of iterations =  3.0

     negative rho (up, down):  1.393E-03 1.260E-01

     total cpu time spent up to now is     3279.2 secs

     total energy              =    -951.82219178 Ry
     Harris-Foulkes estimate   =    -951.82194788 Ry
     estimated scf accuracy    <       0.00855099 Ry

     total magnetization       =     0.00 Bohr mag/cell
     absolute magnetization    =     0.14 Bohr mag/cell

     iteration # 29     ecut=    70.00 Ry     beta= 0.70
     Davidson diagonalization with overlap
     ethr =  6.97E-07,  avg # of iterations =  2.0

     negative rho (up, down):  1.443E-03 1.894E-01

     total cpu time spent up to now is     3378.3 secs

     total energy              =    -951.82071983 Ry
     Harris-Foulkes estimate   =    -951.82237785 Ry
     estimated scf accuracy    <       0.03392136 Ry

     total magnetization       =     0.00 Bohr mag/cell
     absolute magnetization    =     0.29 Bohr mag/cell

     iteration # 30     ecut=    70.00 Ry     beta= 0.70
     Davidson diagonalization with overlap
     ethr =  6.97E-07,  avg # of iterations =  2.5

     negative rho (up, down):  1.425E-03 9.607E-02

     total cpu time spent up to now is     3483.1 secs

     total energy              =    -951.82175458 Ry
     Harris-Foulkes estimate   =    -951.82131173 Ry
     estimated scf accuracy    <       0.00122820 Ry

     total magnetization       =    -0.00 Bohr mag/cell
     absolute magnetization    =     0.05 Bohr mag/cell

     iteration # 31     ecut=    70.00 Ry     beta= 0.70
     Davidson diagonalization with overlap
     ethr =  5.69E-07,  avg # of iterations =  2.5

     negative rho (up, down):  1.379E-03 8.419E-02

     total cpu time spent up to now is     3578.5 secs

     total energy              =    -951.82193762 Ry
     Harris-Foulkes estimate   =    -951.82184754 Ry
     estimated scf accuracy    <       0.00369032 Ry

     total magnetization       =    -0.00 Bohr mag/cell
     absolute magnetization    =     0.10 Bohr mag/cell

     iteration # 32     ecut=    70.00 Ry     beta= 0.70
     Davidson diagonalization with overlap
     ethr =  5.69E-07,  avg # of iterations =  1.5

     negative rho (up, down):  1.461E-03 1.280E-01

     total cpu time spent up to now is     3669.4 secs

     total energy              =    -951.82162275 Ry
     Harris-Foulkes estimate   =    -951.82195238 Ry
     estimated scf accuracy    <       0.00651189 Ry

     total magnetization       =    -0.00 Bohr mag/cell
     absolute magnetization    =     0.13 Bohr mag/cell

     iteration # 33     ecut=    70.00 Ry     beta= 0.70
     Davidson diagonalization with overlap
     ethr =  5.69E-07,  avg # of iterations =  2.0

     negative rho (up, down):  1.300E-03 4.993E-02

     total cpu time spent up to now is     3765.3 secs

     total energy              =    -951.82194112 Ry
     Harris-Foulkes estimate   =    -951.82172071 Ry
     estimated scf accuracy    <       0.00001939 Ry

     total magnetization       =     0.00 Bohr mag/cell
     absolute magnetization    =     0.02 Bohr mag/cell

     iteration # 34     ecut=    70.00 Ry     beta= 0.70
     Davidson diagonalization with overlap
     ethr =  8.98E-09,  avg # of iterations =  3.0

     negative rho (up, down):  1.299E-03 1.598E-02

     total cpu time spent up to now is     3873.4 secs

     total energy              =    -951.82197160 Ry
     Harris-Foulkes estimate   =    -951.82194804 Ry
     estimated scf accuracy    <       0.00004440 Ry

     total magnetization       =    -0.00 Bohr mag/cell
     absolute magnetization    =     0.02 Bohr mag/cell

     iteration # 35     ecut=    70.00 Ry     beta= 0.70
     Davidson diagonalization with overlap
     ethr =  8.98E-09,  avg # of iterations =  2.5

     negative rho (up, down):  1.292E-03 1.235E-02

     total cpu time spent up to now is     3972.1 secs

     total energy              =    -951.82197419 Ry
     Harris-Foulkes estimate   =    -951.82197540 Ry
     estimated scf accuracy    <       0.00004242 Ry

     total magnetization       =    -0.00 Bohr mag/cell
     absolute magnetization    =     0.02 Bohr mag/cell

     iteration # 36     ecut=    70.00 Ry     beta= 0.70
     Davidson diagonalization with overlap
     ethr =  8.98E-09,  avg # of iterations =  2.0

     negative rho (up, down):  1.291E-03 5.462E-03

     total cpu time spent up to now is     4069.4 secs

     total energy              =    -951.82197707 Ry
     Harris-Foulkes estimate   =    -951.82197679 Ry
     estimated scf accuracy    <       0.00001992 Ry

     total magnetization       =     0.00 Bohr mag/cell
     absolute magnetization    =     0.01 Bohr mag/cell

     iteration # 37     ecut=    70.00 Ry     beta= 0.70
     Davidson diagonalization with overlap
     ethr =  8.98E-09,  avg # of iterations =  2.0

     negative rho (up, down):  1.290E-03 2.314E-03

     total cpu time spent up to now is     4162.0 secs

     total energy              =    -951.82197834 Ry
     Harris-Foulkes estimate   =    -951.82197803 Ry
     estimated scf accuracy    <       0.00000420 Ry

     total magnetization       =    -0.00 Bohr mag/cell
     absolute magnetization    =     0.01 Bohr mag/cell

     iteration # 38     ecut=    70.00 Ry     beta= 0.70
     Davidson diagonalization with overlap
     ethr =  1.95E-09,  avg # of iterations =  3.0

     negative rho (up, down):  1.290E-03 1.275E-02

     total cpu time spent up to now is     4265.9 secs

     total energy              =    -951.82197757 Ry
     Harris-Foulkes estimate   =    -951.82198008 Ry
     estimated scf accuracy    <       0.00007544 Ry

     total magnetization       =    -0.00 Bohr mag/cell
     absolute magnetization    =     0.02 Bohr mag/cell

     iteration # 39     ecut=    70.00 Ry     beta= 0.70
     Davidson diagonalization with overlap
     ethr =  1.95E-09,  avg # of iterations =  2.0

     negative rho (up, down):  1.291E-03 1.413E-02

     total cpu time spent up to now is     4362.6 secs

     total energy              =    -951.82197799 Ry
     Harris-Foulkes estimate   =    -951.82197788 Ry
     estimated scf accuracy    <       0.00006363 Ry

     total magnetization       =    -0.00 Bohr mag/cell
     absolute magnetization    =     0.02 Bohr mag/cell

     iteration # 40     ecut=    70.00 Ry     beta= 0.70
     Davidson diagonalization with overlap
     ethr =  1.95E-09,  avg # of iterations =  2.0

     negative rho (up, down):  1.293E-03 1.793E-02

     total cpu time spent up to now is     4456.0 secs

     total energy              =    -951.82197602 Ry
     Harris-Foulkes estimate   =    -951.82197831 Ry
     estimated scf accuracy    <       0.00010900 Ry

     total magnetization       =    -0.00 Bohr mag/cell
     absolute magnetization    =     0.02 Bohr mag/cell

     iteration # 41     ecut=    70.00 Ry     beta= 0.70
     Davidson diagonalization with overlap
     ethr =  1.95E-09,  avg # of iterations =  2.0

     negative rho (up, down):  1.290E-03 2.167E-02

     total cpu time spent up to now is     4552.9 secs

     total energy              =    -951.82197699 Ry
     Harris-Foulkes estimate   =    -951.82197692 Ry
     estimated scf accuracy    <       0.00013024 Ry

     total magnetization       =     0.00 Bohr mag/cell
     absolute magnetization    =     0.02 Bohr mag/cell

     iteration # 42     ecut=    70.00 Ry     beta= 0.70
     Davidson diagonalization with overlap
     ethr =  1.95E-09,  avg # of iterations =  2.0

     negative rho (up, down):  1.290E-03 2.674E-02

     total cpu time spent up to now is     4644.8 secs

     total energy              =    -951.82197211 Ry
     Harris-Foulkes estimate   =    -951.82197709 Ry
     estimated scf accuracy    <       0.00016355 Ry

     total magnetization       =     0.00 Bohr mag/cell
     absolute magnetization    =     0.02 Bohr mag/cell

     iteration # 43     ecut=    70.00 Ry     beta= 0.70
     Davidson diagonalization with overlap
     ethr =  1.95E-09,  avg # of iterations =  2.5

     negative rho (up, down):  1.291E-03 1.970E-02

     total cpu time spent up to now is     4743.6 secs

     total energy              =    -951.82197602 Ry
     Harris-Foulkes estimate   =    -951.82197335 Ry
     estimated scf accuracy    <       0.00009467 Ry

     total magnetization       =    -0.00 Bohr mag/cell
     absolute magnetization    =     0.02 Bohr mag/cell

     iteration # 44     ecut=    70.00 Ry     beta= 0.70
     Davidson diagonalization with overlap
     ethr =  1.95E-09,  avg # of iterations =  2.0

     negative rho (up, down):  1.291E-03 1.950E-02

     total cpu time spent up to now is     4834.8 secs

     total energy              =    -951.82197549 Ry
     Harris-Foulkes estimate   =    -951.82197615 Ry
     estimated scf accuracy    <       0.00011121 Ry

     total magnetization       =    -0.00 Bohr mag/cell
     absolute magnetization    =     0.02 Bohr mag/cell

     iteration # 45     ecut=    70.00 Ry     beta= 0.70
     Davidson diagonalization with overlap
     ethr =  1.95E-09,  avg # of iterations =  2.0

     negative rho (up, down):  1.289E-03 2.025E-02

     total cpu time spent up to now is     4934.4 secs

     total energy              =    -951.82197641 Ry
     Harris-Foulkes estimate   =    -951.82197628 Ry
     estimated scf accuracy    <       0.00011738 Ry

     total magnetization       =     0.00 Bohr mag/cell
     absolute magnetization    =     0.02 Bohr mag/cell

     iteration # 46     ecut=    70.00 Ry     beta= 0.70
     Davidson diagonalization with overlap
     ethr =  1.95E-09,  avg # of iterations =  2.5

     negative rho (up, down):  1.291E-03 2.297E-02

     total cpu time spent up to now is     5037.7 secs

     total energy              =    -951.82198567 Ry
     Harris-Foulkes estimate   =    -951.82197833 Ry
     estimated scf accuracy    <       0.00021780 Ry

     total magnetization       =     0.00 Bohr mag/cell
     absolute magnetization    =     0.02 Bohr mag/cell

     iteration # 47     ecut=    70.00 Ry     beta= 0.70
     Davidson diagonalization with overlap
     ethr =  1.95E-09,  avg # of iterations =  3.0

     negative rho (up, down):  1.298E-03 5.794E-02

     total cpu time spent up to now is     5164.1 secs

     total energy              =    -951.82193214 Ry
     Harris-Foulkes estimate   =    -951.82200068 Ry
     estimated scf accuracy    <       0.00142568 Ry

     total magnetization       =    -0.00 Bohr mag/cell
     absolute magnetization    =     0.06 Bohr mag/cell

     iteration # 48     ecut=    70.00 Ry     beta= 0.70
     Davidson diagonalization with overlap
     ethr =  1.95E-09,  avg # of iterations =  3.0

     negative rho (up, down):  1.294E-03 4.337E-02

     total cpu time spent up to now is     5283.0 secs

     total energy              =    -951.82196012 Ry
     Harris-Foulkes estimate   =    -951.82194085 Ry
     estimated scf accuracy    <       0.00038130 Ry

     total magnetization       =    -0.00 Bohr mag/cell
     absolute magnetization    =     0.03 Bohr mag/cell

     iteration # 49     ecut=    70.00 Ry     beta= 0.70
     Davidson diagonalization with overlap
     ethr =  1.95E-09,  avg # of iterations =  3.5

     negative rho (up, down):  1.297E-03 8.653E-02

     total cpu time spent up to now is     5413.9 secs

     total energy              =    -951.82181415 Ry
     Harris-Foulkes estimate   =    -951.82201035 Ry
     estimated scf accuracy    <       0.00353779 Ry

     total magnetization       =     0.00 Bohr mag/cell
     absolute magnetization    =     0.09 Bohr mag/cell

     iteration # 50     ecut=    70.00 Ry     beta= 0.70
     Davidson diagonalization with overlap
     ethr =  1.95E-09,  avg # of iterations =  4.0

     negative rho (up, down):  1.292E-03 2.745E-02

     total cpu time spent up to now is     5547.7 secs

     total energy              =    -951.82196855 Ry
     Harris-Foulkes estimate   =    -951.82187315 Ry
     estimated scf accuracy    <       0.00000756 Ry

     total magnetization       =     0.00 Bohr mag/cell
     absolute magnetization    =     0.01 Bohr mag/cell

     iteration # 51     ecut=    70.00 Ry     beta= 0.70
     Davidson diagonalization with overlap
     ethr =  1.95E-09,  avg # of iterations =  2.5

     negative rho (up, down):  1.293E-03 9.078E-03

     total cpu time spent up to now is     5647.0 secs

     total energy              =    -951.82197750 Ry
     Harris-Foulkes estimate   =    -951.82196909 Ry
     estimated scf accuracy    <       0.00000773 Ry

     total magnetization       =    -0.00 Bohr mag/cell
     absolute magnetization    =     0.01 Bohr mag/cell

     iteration # 52     ecut=    70.00 Ry     beta= 0.70
     Davidson diagonalization with overlap
     ethr =  1.95E-09,  avg # of iterations =  2.0

     negative rho (up, down):  1.292E-03 1.041E-02

     total cpu time spent up to now is     5741.3 secs

     total energy              =    -951.82197750 Ry
     Harris-Foulkes estimate   =    -951.82197775 Ry
     estimated scf accuracy    <       0.00002610 Ry

     total magnetization       =    -0.00 Bohr mag/cell
     absolute magnetization    =     0.01 Bohr mag/cell

     iteration # 53     ecut=    70.00 Ry     beta= 0.70
     Davidson diagonalization with overlap
     ethr =  1.95E-09,  avg # of iterations =  2.0

     negative rho (up, down):  1.292E-03 5.435E-03

     total cpu time spent up to now is     5838.4 secs

     total energy              =    -951.82197764 Ry
     Harris-Foulkes estimate   =    -951.82197812 Ry
     estimated scf accuracy    <       0.00000819 Ry

     total magnetization       =     0.00 Bohr mag/cell
     absolute magnetization    =     0.01 Bohr mag/cell

     iteration # 54     ecut=    70.00 Ry     beta= 0.70
     Davidson diagonalization with overlap
     ethr =  1.95E-09,  avg # of iterations =  3.0

     negative rho (up, down):  1.295E-03 4.653E-03

     total cpu time spent up to now is     5941.5 secs

     total energy              =    -951.82197675 Ry
     Harris-Foulkes estimate   =    -951.82197939 Ry
     estimated scf accuracy    <       0.00003753 Ry

     total magnetization       =     0.00 Bohr mag/cell
     absolute magnetization    =     0.01 Bohr mag/cell

     iteration # 55     ecut=    70.00 Ry     beta= 0.70
     Davidson diagonalization with overlap
     ethr =  1.95E-09,  avg # of iterations =  2.0

     negative rho (up, down):  1.292E-03 5.804E-03

     total cpu time spent up to now is     6042.7 secs

     total energy              =    -951.82197798 Ry
     Harris-Foulkes estimate   =    -951.82197774 Ry
     estimated scf accuracy    <       0.00001154 Ry

     total magnetization       =     0.00 Bohr mag/cell
     absolute magnetization    =     0.01 Bohr mag/cell

     iteration # 56     ecut=    70.00 Ry     beta= 0.70
     Davidson diagonalization with overlap
     ethr =  1.95E-09,  avg # of iterations =  2.0

     negative rho (up, down):  1.292E-03 3.467E-03

     total cpu time spent up to now is     6138.2 secs

     total energy              =    -951.82197837 Ry
     Harris-Foulkes estimate   =    -951.82197841 Ry
     estimated scf accuracy    <       0.00000566 Ry

     total magnetization       =     0.00 Bohr mag/cell
     absolute magnetization    =     0.01 Bohr mag/cell

     iteration # 57     ecut=    70.00 Ry     beta= 0.70
     Davidson diagonalization with overlap
     ethr =  1.95E-09,  avg # of iterations =  1.5

     negative rho (up, down):  1.291E-03 2.519E-03

     total cpu time spent up to now is     6229.4 secs

     total energy              =    -951.82197871 Ry
     Harris-Foulkes estimate   =    -951.82197849 Ry
     estimated scf accuracy    <       0.00000133 Ry

     total magnetization       =    -0.00 Bohr mag/cell
     absolute magnetization    =     0.00 Bohr mag/cell

     iteration # 58     ecut=    70.00 Ry     beta= 0.70
     Davidson diagonalization with overlap
     ethr =  6.14E-10,  avg # of iterations =  1.0

     negative rho (up, down):  1.291E-03 2.802E-03

     total cpu time spent up to now is     6320.0 secs

     total energy              =    -951.82197865 Ry
     Harris-Foulkes estimate   =    -951.82197872 Ry
     estimated scf accuracy    <       0.00000214 Ry

     total magnetization       =    -0.00 Bohr mag/cell
     absolute magnetization    =     0.01 Bohr mag/cell

     iteration # 59     ecut=    70.00 Ry     beta= 0.70
     Davidson diagonalization with overlap
     ethr =  6.14E-10,  avg # of iterations =  2.0

     negative rho (up, down):  1.290E-03 3.333E-03

     total cpu time spent up to now is     6416.0 secs

     total energy              =    -951.82197863 Ry
     Harris-Foulkes estimate   =    -951.82197875 Ry
     estimated scf accuracy    <       0.00000463 Ry

     total magnetization       =     0.00 Bohr mag/cell
     absolute magnetization    =     0.01 Bohr mag/cell

     iteration # 60     ecut=    70.00 Ry     beta= 0.70
     Davidson diagonalization with overlap
     ethr =  6.14E-10,  avg # of iterations =  1.5

     negative rho (up, down):  1.290E-03 2.401E-03

     total cpu time spent up to now is     6510.1 secs

     total energy              =    -951.82197866 Ry
     Harris-Foulkes estimate   =    -951.82197878 Ry
     estimated scf accuracy    <       0.00000236 Ry

     total magnetization       =     0.00 Bohr mag/cell
     absolute magnetization    =     0.00 Bohr mag/cell

     iteration # 61     ecut=    70.00 Ry     beta= 0.70
     Davidson diagonalization with overlap
     ethr =  6.14E-10,  avg # of iterations =  2.0

     negative rho (up, down):  1.290E-03 3.764E-03

     total cpu time spent up to now is     6607.3 secs

     total energy              =    -951.82197859 Ry
     Harris-Foulkes estimate   =    -951.82197890 Ry
     estimated scf accuracy    <       0.00000710 Ry

     total magnetization       =    -0.00 Bohr mag/cell
     absolute magnetization    =     0.01 Bohr mag/cell

     iteration # 62     ecut=    70.00 Ry     beta= 0.70
     Davidson diagonalization with overlap
     ethr =  6.14E-10,  avg # of iterations =  1.5

     negative rho (up, down):  1.290E-03 6.777E-03

     total cpu time spent up to now is     6701.4 secs

     total energy              =    -951.82197836 Ry
     Harris-Foulkes estimate   =    -951.82197871 Ry
     estimated scf accuracy    <       0.00001026 Ry

     total magnetization       =     0.00 Bohr mag/cell
     absolute magnetization    =     0.01 Bohr mag/cell

     iteration # 63     ecut=    70.00 Ry     beta= 0.70
     Davidson diagonalization with overlap
     ethr =  6.14E-10,  avg # of iterations =  2.0

     negative rho (up, down):  1.290E-03 3.740E-03

     total cpu time spent up to now is     6796.4 secs

     total energy              =    -951.82197863 Ry
     Harris-Foulkes estimate   =    -951.82197846 Ry
     estimated scf accuracy    <       0.00000138 Ry

     total magnetization       =    -0.00 Bohr mag/cell
     absolute magnetization    =     0.00 Bohr mag/cell

     iteration # 64     ecut=    70.00 Ry     beta= 0.70
     Davidson diagonalization with overlap
     ethr =  6.14E-10,  avg # of iterations =  1.5

     negative rho (up, down):  1.289E-03 5.213E-05

     Magnetic moment per site:
     atom:    1    charge:    0.2194    magn:    0.0000    constr:    0.0000
     atom:    2    charge:    0.2184    magn:   -0.0000    constr:    0.0000
     atom:    3    charge:    1.7154    magn:    0.0000    constr:    0.0000
     atom:    4    charge:    1.7153    magn:   -0.0000    constr:    0.0000
     atom:    5    charge:    1.7165    magn:    0.0000    constr:    0.0000
     atom:    6    charge:    1.7147    magn:   -0.0000    constr:    0.0000
     atom:    7    charge:    1.7169    magn:    0.0000    constr:    0.0000
     atom:    8    charge:    1.7153    magn:   -0.0000    constr:    0.0000
     atom:    9    charge:    1.7156    magn:    0.0000    constr:    0.0000
     atom:   10    charge:    1.7174    magn:   -0.0000    constr:    0.0000
     atom:   11    charge:    1.7155    magn:    0.0000    constr:    0.0000
     atom:   12    charge:    1.7177    magn:   -0.0000    constr:    0.0000
     atom:   13    charge:    1.7155    magn:    0.0000    constr:    0.0000
     atom:   14    charge:    1.7175    magn:   -0.0000    constr:    0.0000
     atom:   15    charge:    1.7118    magn:    0.0000    constr:    0.0000
     atom:   16    charge:    1.7113    magn:   -0.0000    constr:    0.0000
     atom:   17    charge:    1.7205    magn:    0.0000    constr:    0.0000
     atom:   18    charge:    1.7114    magn:   -0.0000    constr:    0.0000
     atom:   19    charge:    1.7119    magn:    0.0000    constr:    0.0000
     atom:   20    charge:    1.7175    magn:   -0.0000    constr:    0.0000
     atom:   21    charge:    1.7156    magn:    0.0000    constr:    0.0000
     atom:   22    charge:    1.7176    magn:   -0.0000    constr:    0.0000
     atom:   23    charge:    1.7155    magn:    0.0000    constr:    0.0000
     atom:   24    charge:    1.7152    magn:   -0.0000    constr:    0.0000
     atom:   25    charge:    1.7114    magn:    0.0000    constr:    0.0000
     atom:   26    charge:    1.7138    magn:   -0.0000    constr:    0.0000
     atom:   27    charge:    1.8214    magn:    0.0000    constr:    0.0000
     atom:   28    charge:   13.4078    magn:    0.0001    constr:    0.0000
     atom:   29    charge:    1.8185    magn:    0.0000    constr:    0.0000
     atom:   30    charge:    1.7114    magn:   -0.0000    constr:    0.0000
     atom:   31    charge:    1.7118    magn:    0.0000    constr:    0.0000
     atom:   32    charge:    1.7152    magn:   -0.0000    constr:    0.0000
     atom:   33    charge:    1.7168    magn:    0.0000    constr:    0.0000
     atom:   34    charge:    1.7154    magn:   -0.0000    constr:    0.0000
     atom:   35    charge:    1.7167    magn:    0.0000    constr:    0.0000
     atom:   36    charge:    1.7147    magn:   -0.0000    constr:    0.0000
     atom:   37    charge:    1.7218    magn:    0.0000    constr:    0.0000
     atom:   38    charge:    1.7142    magn:   -0.0000    constr:    0.0000
     atom:   39    charge:    1.8215    magn:    0.0000    constr:    0.0000
     atom:   40    charge:    1.7111    magn:   -0.0000    constr:    0.0000
     atom:   41    charge:    1.7206    magn:    0.0000    constr:    0.0000
     atom:   42    charge:    1.7146    magn:   -0.0000    constr:    0.0000
     atom:   43    charge:    1.7167    magn:    0.0000    constr:    0.0000
     atom:   44    charge:    1.7155    magn:   -0.0000    constr:    0.0000
     atom:   45    charge:    1.7208    magn:    0.0000    constr:    0.0000
     atom:   46    charge:    1.7155    magn:   -0.0000    constr:    0.0000
     atom:   47    charge:    1.7166    magn:    0.0000    constr:    0.0000
     atom:   48    charge:    1.7152    magn:   -0.0000    constr:    0.0000
     atom:   49    charge:    1.7116    magn:    0.0000    constr:    0.0000
     atom:   50    charge:    1.7175    magn:   -0.0000    constr:    0.0000
     atom:   51    charge:    1.7118    magn:    0.0000    constr:    0.0000
     atom:   52    charge:    1.7152    magn:   -0.0000    constr:    0.0000

     total cpu time spent up to now is     6888.0 secs

     End of self-consistent calculation

 ------ SPIN UP ------------


          k = 0.0000 0.0000 0.0000 ( 87777 PWs)   bands (ev):

  -107.9120 -69.0954 -69.0661 -67.0017 -19.8426 -19.0279 -19.0143 -18.9056
   -18.8978 -18.8179 -18.7605 -17.1758 -17.1713 -17.1375 -17.1145 -17.0880
   -16.7708 -16.3254 -16.3207 -16.1900 -16.1778 -16.1661 -15.6884 -14.3260
   -14.3192 -14.1605 -14.0294 -14.0259 -13.5335 -13.1492 -13.1382 -13.0888
   -12.9291 -12.9112 -12.5147 -12.0877 -12.0858 -11.7309 -11.5899 -11.5802
   -10.9507 -10.4419 -10.4394  -9.5865  -9.3873  -9.3754  -9.2376  -9.2258
    -9.2237  -9.2110  -8.9967  -8.9628  -8.6188  -8.6033  -8.5799  -8.4568
    -7.9215  -7.9127  -7.8846  -7.6829  -7.5638  -7.5505  -7.4597  -7.4579
    -7.1749  -6.8548  -6.8323  -6.8278  -6.7605  -6.6329  -6.6267  -6.5677
    -6.5624  -6.5609  -6.5302  -6.4504  -6.4373  -6.3993  -6.3040  -6.2984
    -5.7377  -5.5582  -5.5494  -5.0401  -4.9611  -4.8568  -4.8525  -4.7699
    -4.7282  -4.6842  -4.4284  -4.4104  -4.3266  -3.8669  -3.8503  -3.7846
    -3.7719  -3.7709  -3.5406  -3.4454  -3.4148  -2.9965  -1.9132  -1.8208
    -1.8163  -1.6302  -1.5995  -1.2139   0.0823   0.1200   0.8787   0.9519
     0.9574   1.1934   1.2057   1.5308   2.4879   2.7858   2.7913   2.8401
     3.0179   3.0412   3.4247   3.6159   3.6802   3.7310   3.7362   3.7575
     3.9495   4.1885

     occupation numbers 
     1.0000   1.0000   1.0000   1.0000   1.0000   1.0000   1.0000   1.0000
     1.0000   1.0000   1.0000   1.0000   1.0000   1.0000   1.0000   1.0000
     1.0000   1.0000   1.0000   1.0000   1.0000   1.0000   1.0000   1.0000
     1.0000   1.0000   1.0000   1.0000   1.0000   1.0000   1.0000   1.0000
     1.0000   1.0000   1.0000   1.0000   1.0000   1.0000   1.0000   1.0000
     1.0000   1.0000   1.0000   1.0000   1.0000   1.0000   1.0000   1.0000
     1.0000   1.0000   1.0000   1.0000   1.0000   1.0000   1.0000   1.0000
     1.0000   1.0000   1.0000   1.0000   1.0000   1.0000   1.0000   1.0000
     1.0000   1.0000   1.0000   1.0000   1.0000   1.0000   1.0000   1.0000
     1.0000   1.0000   1.0000   1.0000   1.0000   1.0000   1.0000   1.0000
     1.0000   1.0000   1.0000   1.0000   1.0000   1.0000   1.0000   1.0000
     1.0000   1.0000   1.0000   1.0000   1.0000   1.0000   1.0000   1.0000
     1.0000   1.0000   1.0000   1.0000   1.0000   1.0000   1.0000   1.0000
     1.0000   1.0000   1.0000   1.0000   0.0000   0.0000   0.0000   0.0000
     0.0000   0.0000   0.0000   0.0000   0.0000   0.0000   0.0000   0.0000
     0.0000   0.0000   0.0000   0.0000   0.0000   0.0000   0.0000   0.0000
     0.0000   0.0000

 ------ SPIN DOWN ----------


          k = 0.0000 0.0000 0.0000 ( 87777 PWs)   bands (ev):

  -107.9118 -69.0952 -69.0659 -67.0015 -19.8426 -19.0279 -19.0143 -18.9056
   -18.8978 -18.8179 -18.7605 -17.1758 -17.1713 -17.1375 -17.1145 -17.0880
   -16.7708 -16.3254 -16.3207 -16.1900 -16.1778 -16.1661 -15.6884 -14.3260
   -14.3192 -14.1606 -14.0294 -14.0259 -13.5334 -13.1492 -13.1382 -13.0887
   -12.9291 -12.9112 -12.5148 -12.0877 -12.0858 -11.7309 -11.5899 -11.5802
   -10.9507 -10.4419 -10.4394  -9.5865  -9.3873  -9.3754  -9.2376  -9.2258
    -9.2237  -9.2110  -8.9966  -8.9628  -8.6188  -8.6033  -8.5799  -8.4568
    -7.9215  -7.9127  -7.8845  -7.6829  -7.5638  -7.5505  -7.4597  -7.4579
    -7.1749  -6.8548  -6.8323  -6.8278  -6.7605  -6.6329  -6.6267  -6.5677
    -6.5624  -6.5609  -6.5302  -6.4504  -6.4373  -6.3993  -6.3039  -6.2985
    -5.7377  -5.5582  -5.5494  -5.0401  -4.9611  -4.8568  -4.8525  -4.7699
    -4.7282  -4.6842  -4.4284  -4.4104  -4.3266  -3.8669  -3.8503  -3.7846
    -3.7719  -3.7709  -3.5406  -3.4454  -3.4148  -2.9965  -1.9133  -1.8208
    -1.8163  -1.6302  -1.5995  -1.2138   0.0824   0.1199   0.8787   0.9519
     0.9574   1.1934   1.2057   1.5308   2.4880   2.7858   2.7913   2.8401
     3.0179   3.0413   3.4246   3.6160   3.6803   3.7311   3.7362   3.7574
     3.9495   4.1886

     occupation numbers 
     1.0000   1.0000   1.0000   1.0000   1.0000   1.0000   1.0000   1.0000
     1.0000   1.0000   1.0000   1.0000   1.0000   1.0000   1.0000   1.0000
     1.0000   1.0000   1.0000   1.0000   1.0000   1.0000   1.0000   1.0000
     1.0000   1.0000   1.0000   1.0000   1.0000   1.0000   1.0000   1.0000
     1.0000   1.0000   1.0000   1.0000   1.0000   1.0000   1.0000   1.0000
     1.0000   1.0000   1.0000   1.0000   1.0000   1.0000   1.0000   1.0000
     1.0000   1.0000   1.0000   1.0000   1.0000   1.0000   1.0000   1.0000
     1.0000   1.0000   1.0000   1.0000   1.0000   1.0000   1.0000   1.0000
     1.0000   1.0000   1.0000   1.0000   1.0000   1.0000   1.0000   1.0000
     1.0000   1.0000   1.0000   1.0000   1.0000   1.0000   1.0000   1.0000
     1.0000   1.0000   1.0000   1.0000   1.0000   1.0000   1.0000   1.0000
     1.0000   1.0000   1.0000   1.0000   1.0000   1.0000   1.0000   1.0000
     1.0000   1.0000   1.0000   1.0000   1.0000   1.0000   1.0000   1.0000
     1.0000   1.0000   1.0000   1.0000   0.0000   0.0000   0.0000   0.0000
     0.0000   0.0000   0.0000   0.0000   0.0000   0.0000   0.0000   0.0000
     0.0000   0.0000   0.0000   0.0000   0.0000   0.0000   0.0000   0.0000
     0.0000   0.0000

     the Fermi energy is    -1.0415 ev

!    total energy              =    -951.82197874 Ry
     Harris-Foulkes estimate   =    -951.82197869 Ry
     estimated scf accuracy    <       0.00000074 Ry

     The total energy is the sum of the following terms:

     one-electron contribution =   -3010.96621852 Ry
     hartree contribution      =    1548.12458888 Ry
     xc contribution           =    -265.83779601 Ry
     ewald contribution        =     776.85744691 Ry
     smearing contrib. (-TS)   =       0.00000000 Ry

     total magnetization       =     0.00 Bohr mag/cell
     absolute magnetization    =     0.00 Bohr mag/cell

     convergence has been achieved in  64 iterations

     Writing output data file cobre-sixhollow-distance-1.8.save/

     init_run     :     76.29s CPU     77.82s WALL (       1 calls)
     electrons    :   6690.48s CPU   6809.11s WALL (       1 calls)

     Called by init_run:
     wfcinit      :     46.91s CPU     47.23s WALL (       1 calls)
     wfcinit:atom :      0.08s CPU      0.10s WALL (       2 calls)
     wfcinit:wfcr :     46.44s CPU     46.67s WALL (       2 calls)
     potinit      :     12.30s CPU     12.81s WALL (       1 calls)
     hinit0       :      7.41s CPU      7.44s WALL (       1 calls)

     Called by electrons:
     c_bands      :   4314.75s CPU   4339.47s WALL (      64 calls)
     sum_band     :   1385.10s CPU   1422.58s WALL (      64 calls)
     v_of_rho     :    476.40s CPU    499.33s WALL (      65 calls)
     v_h          :      4.84s CPU      5.03s WALL (      65 calls)
     v_xc         :    471.56s CPU    494.29s WALL (      65 calls)
     newd         :    484.63s CPU    518.28s WALL (      65 calls)
     mix_rho      :     30.55s CPU     31.13s WALL (      64 calls)

     Called by c_bands:
     init_us_2    :     11.96s CPU     12.03s WALL (     258 calls)
     cegterg      :   4281.91s CPU   4306.43s WALL (     128 calls)

     Called by sum_band:
     sum_band:bec :      0.11s CPU      0.11s WALL (     128 calls)
     addusdens    :    862.12s CPU    896.43s WALL (      64 calls)

     Called by *egterg:
     h_psi        :   2225.05s CPU   2242.74s WALL (     458 calls)
     s_psi        :    735.68s CPU    736.03s WALL (     458 calls)
     g_psi        :      2.48s CPU      2.49s WALL (     328 calls)
     cdiaghg      :     32.24s CPU     32.26s WALL (     456 calls)
     cegterg:over :    541.59s CPU    541.77s WALL (     328 calls)
     cegterg:upda :    331.06s CPU    333.06s WALL (     328 calls)
     cegterg:last :    228.27s CPU    228.36s WALL (     128 calls)

     Called by h_psi:
     h_psi:pot    :   2222.59s CPU   2237.48s WALL (     458 calls)
     h_psi:calbec :    740.36s CPU    740.68s WALL (     458 calls)
     vloc_psi     :    747.37s CPU    761.74s WALL (     458 calls)
     add_vuspsi   :    734.85s CPU    735.06s WALL (     458 calls)

     General routines
     calbec       :   1057.22s CPU   1057.68s WALL (     586 calls)
     fft          :    272.25s CPU    281.33s WALL (    4869 calls)
     ffts         :      5.04s CPU      5.19s WALL (     258 calls)
     fftw         :    795.50s CPU    810.76s WALL (   94398 calls)
     interpolate  :     11.19s CPU     11.54s WALL (     130 calls)

     Parallel routines
     fft_scatt_xy :    196.60s CPU    199.35s WALL (   99525 calls)
     fft_scatt_yz :    352.46s CPU    369.98s WALL (   99525 calls)

     PWSCF        :      1h52m CPU      1h54m WALL


   This run was terminated on:   0:27:41   4Jan2023            

=------------------------------------------------------------------------------=
   JOB DONE.
=------------------------------------------------------------------------------=
