
     Program PWSCF v.6.4.1 starts on 14Nov2022 at 10:40:21 

     This program is part of the open-source Quantum ESPRESSO suite
     for quantum simulation of materials; please cite
         "P. Giannozzi et al., J. Phys.:Condens. Matter 21 395502 (2009);
         "P. Giannozzi et al., J. Phys.:Condens. Matter 29 465901 (2017);
          URL http://www.quantum-espresso.org", 
     in publications or presentations arising from this work. More details at
     http://www.quantum-espresso.org/quote

     Parallel version (MPI), running on     6 processors

     MPI processes distributed on     1 nodes
     R & G space division:  proc/nbgrp/npool/nimage =       6
     Reading input from distance-2.2.in

     Current dimensions of program PWSCF are:
     Max number of different atomic species (ntypx) = 10
     Max number of k-points (npk) =  40000
     Max angular momentum in pseudopotentials (lmaxx) =  3

     IMPORTANT: XC functional enforced from input :
     Exchange-correlation      = RVV10 ( 1  4 13  4 3 0)
     Any further DFT definition will be discarded
     Please, verify this is what you really want

               file H.pbe-rrkjus.UPF: wavefunction(s)  1S renormalized

     Subspace diagonalization in iterative solution of the eigenvalue problem:
     a serial algorithm will be used


     Parallelization info
     --------------------
     sticks:   dense  smooth     PW     G-vecs:    dense   smooth      PW
     Min        3051    1746    432               270999   117096   14629
     Max        3053    1747    437               271001   117099   14630
     Sum       18313   10477   2611              1626001   702581   87777



     bravais-lattice index     =            4
     lattice parameter (alat)  =      23.2937  a.u.
     unit-cell volume          =    8879.8548 (a.u.)^3
     number of atoms/cell      =           52
     number of atomic types    =            3
     number of electrons       =       214.00
     number of Kohn-Sham states=          128
     kinetic-energy cutoff     =      70.0000  Ry
     charge density cutoff     =     490.0000  Ry
     convergence threshold     =      1.0E-06
     mixing beta               =       0.3000
     number of iterations used =            4  plain     mixing
     Exchange-correlation      = RVV10 ( 1  4 13  4 3 0)

     celldm(1)=  23.293684  celldm(2)=   0.000000  celldm(3)=   0.811261
     celldm(4)=   0.000000  celldm(5)=   0.000000  celldm(6)=   0.000000

     crystal axes: (cart. coord. in units of alat)
               a(1) = (   1.000000   0.000000   0.000000 )  
               a(2) = (  -0.500000   0.866025   0.000000 )  
               a(3) = (   0.000000   0.000000   0.811261 )  

     reciprocal axes: (cart. coord. in units 2 pi/alat)
               b(1) = (  1.000000  0.577350 -0.000000 )  
               b(2) = (  0.000000  1.154701  0.000000 )  
               b(3) = (  0.000000 -0.000000  1.232649 )  


     PseudoPot. # 1 for H  read from file:
     /home/cristian/Escritorio/Proyecto_Grafeno/pseudopotenciales/H.pbe-rrkjus.UPF
     MD5 check sum: 7cc9d459525c9a0585f487a71c3c9563
     Pseudo is Ultrasoft, Zval =  1.0
     Generated by new atomic code, or converted to UPF format
     Using radial grid of 1061 points,  2 beta functions with: 
                l(1) =   0
                l(2) =   0
     Q(r) pseudized with 0 coefficients 


     PseudoPot. # 2 for C  read from file:
     /home/cristian/Escritorio/Proyecto_Grafeno/pseudopotenciales/C.pbe-n-rrkjus_psl.1.0.0.UPF
     MD5 check sum: 1fdd950c42eb37d8afe3dd2f8d12311e
     Pseudo is Ultrasoft + core correction, Zval =  4.0
     Generated using "atomic" code by A. Dal Corso v.6.3MaX
     Using radial grid of 1073 points,  4 beta functions with: 
                l(1) =   0
                l(2) =   0
                l(3) =   1
                l(4) =   1
     Q(r) pseudized with 0 coefficients 


     PseudoPot. # 3 for Fe read from file:
     /home/cristian/Escritorio/Proyecto_Grafeno/pseudopotenciales/Fe.pbe-spn-rrkjus_psl.1.0.0.UPF
     MD5 check sum: 72ea77fed8e64ab3a2ccf2804dfc1862
     Pseudo is Ultrasoft + core correction, Zval = 16.0
     Generated using "atomic" code by A. Dal Corso v.6.3
     Using radial grid of 1191 points,  6 beta functions with: 
                l(1) =   0
                l(2) =   0
                l(3) =   1
                l(4) =   1
                l(5) =   2
                l(6) =   2
     Q(r) pseudized with 0 coefficients 


     vdW kernel table read from file rVV10_kernel_table
     MD5 check sum: b8e2538accc0c0b3206b45ba4daaba6c

     atomic species   valence    mass     pseudopotential
        H              1.00     1.00794     H ( 1.00)
        C              4.00    12.01070     C ( 1.00)
        Fe            16.00    55.84500     Fe( 1.00)

     Starting magnetic structure 
     atomic species   magnetization
        H            0.500
        C            0.300
        Fe           0.800

      2 Sym. Ops. (no inversion) found


                                    s                        frac. trans.

      isym =  1     identity                                     

 cryst.   s( 1) = (     1          0          0      )
                  (     0          1          0      )
                  (     0          0          1      )

 cart.    s( 1) = (  1.0000000  0.0000000  0.0000000 )
                  (  0.0000000  1.0000000  0.0000000 )
                  (  0.0000000  0.0000000  1.0000000 )


      isym =  2     inv. 180 deg rotation - cryst. axis [1,1,0]  

 cryst.   s( 2) = (     0         -1          0      )
                  (    -1          0          0      )
                  (     0          0          1      )

 cart.    s( 2) = (  0.5000000 -0.8660254  0.0000000 )
                  ( -0.8660254 -0.5000000  0.0000000 )
                  (  0.0000000  0.0000000  1.0000000 )


     point group C_s (m)    
     there are  2 classes
     the character table:

       E     s    
A'     1.00  1.00
A''    1.00 -1.00

     the symmetry operations in each class and the name of the first element:

     E        1
          identity                                               
     s        2
          inv. 180 deg rotation - cryst. axis [1,1,0]            

   Cartesian axes

     site n.     atom                  positions (alat units)
         1           H   tau(   1) = (   0.3000000   0.4041452   0.1784775  )
         2           H   tau(   2) = (   0.3000000   0.4041452   0.2394901  )
         3           C   tau(   3) = (   0.0000000   0.0000000   0.0000000  )
         4           C   tau(   4) = (   0.0000000   0.1154701   0.0000000  )
         5           C   tau(   5) = (  -0.1000000   0.1732051   0.0000000  )
         6           C   tau(   6) = (  -0.1000000   0.2886751   0.0000000  )
         7           C   tau(   7) = (  -0.2000000   0.3464102   0.0000000  )
         8           C   tau(   8) = (  -0.2000000   0.4618802   0.0000000  )
         9           C   tau(   9) = (  -0.3000000   0.5196152   0.0000000  )
        10           C   tau(  10) = (  -0.3000000   0.6350853   0.0000000  )
        11           C   tau(  11) = (  -0.4000000   0.6928203   0.0000000  )
        12           C   tau(  12) = (  -0.4000000   0.8082904   0.0000000  )
        13           C   tau(  13) = (   0.2000000   0.0000000   0.0000000  )
        14           C   tau(  14) = (   0.2000000   0.1154701   0.0000000  )
        15           C   tau(  15) = (   0.1000000   0.1732051   0.0000000  )
        16           C   tau(  16) = (   0.1000000   0.2886751   0.0000000  )
        17           C   tau(  17) = (   0.0000000   0.3464102   0.0000000  )
        18           C   tau(  18) = (   0.0000000   0.4618802   0.0000000  )
        19           C   tau(  19) = (  -0.1000000   0.5196152   0.0000000  )
        20           C   tau(  20) = (  -0.1000000   0.6350853   0.0000000  )
        21           C   tau(  21) = (  -0.2000000   0.6928203   0.0000000  )
        22           C   tau(  22) = (  -0.2000000   0.8082904   0.0000000  )
        23           C   tau(  23) = (   0.4000000   0.0000000   0.0000000  )
        24           C   tau(  24) = (   0.4000000   0.1154701   0.0000000  )
        25           C   tau(  25) = (   0.3000000   0.1732051   0.0000000  )
        26           C   tau(  26) = (   0.3000000   0.2886751   0.0000000  )
        27           C   tau(  27) = (   0.2000000   0.3464102   0.0000000  )
        28           Fe  tau(  28) = (   0.2000000   0.4618802   0.0000000  )
        29           C   tau(  29) = (   0.1000000   0.5196152   0.0000000  )
        30           C   tau(  30) = (   0.1000000   0.6350853   0.0000000  )
        31           C   tau(  31) = (   0.0000000   0.6928203   0.0000000  )
        32           C   tau(  32) = (   0.0000000   0.8082904   0.0000000  )
        33           C   tau(  33) = (   0.6000000   0.0000000   0.0000000  )
        34           C   tau(  34) = (   0.6000000   0.1154701   0.0000000  )
        35           C   tau(  35) = (   0.5000000   0.1732051   0.0000000  )
        36           C   tau(  36) = (   0.5000000   0.2886751   0.0000000  )
        37           C   tau(  37) = (   0.4000000   0.3464102   0.0000000  )
        38           C   tau(  38) = (   0.4000000   0.4618802   0.0000000  )
        39           C   tau(  39) = (   0.3000000   0.5196152   0.0000000  )
        40           C   tau(  40) = (   0.3000000   0.6350853   0.0000000  )
        41           C   tau(  41) = (   0.2000000   0.6928203   0.0000000  )
        42           C   tau(  42) = (   0.2000000   0.8082904   0.0000000  )
        43           C   tau(  43) = (   0.8000000   0.0000000   0.0000000  )
        44           C   tau(  44) = (   0.8000000   0.1154701   0.0000000  )
        45           C   tau(  45) = (   0.7000000   0.1732051   0.0000000  )
        46           C   tau(  46) = (   0.7000000   0.2886751   0.0000000  )
        47           C   tau(  47) = (   0.6000000   0.3464102   0.0000000  )
        48           C   tau(  48) = (   0.6000000   0.4618802   0.0000000  )
        49           C   tau(  49) = (   0.5000000   0.5196152   0.0000000  )
        50           C   tau(  50) = (   0.5000000   0.6350853   0.0000000  )
        51           C   tau(  51) = (   0.4000000   0.6928203   0.0000000  )
        52           C   tau(  52) = (   0.4000000   0.8082904   0.0000000  )

   Crystallographic axes

     site n.     atom                  positions (cryst. coord.)
         1           H   tau(   1) = (  0.5333333  0.4666667  0.2200000  )
         2           H   tau(   2) = (  0.5333333  0.4666667  0.2952072  )
         3           C   tau(   3) = (  0.0000000  0.0000000  0.0000000  )
         4           C   tau(   4) = (  0.0666667  0.1333333  0.0000000  )
         5           C   tau(   5) = (  0.0000000  0.2000000  0.0000000  )
         6           C   tau(   6) = (  0.0666667  0.3333333  0.0000000  )
         7           C   tau(   7) = (  0.0000000  0.4000000  0.0000000  )
         8           C   tau(   8) = (  0.0666667  0.5333333  0.0000000  )
         9           C   tau(   9) = (  0.0000000  0.6000000  0.0000000  )
        10           C   tau(  10) = (  0.0666667  0.7333333  0.0000000  )
        11           C   tau(  11) = (  0.0000000  0.8000000  0.0000000  )
        12           C   tau(  12) = (  0.0666667  0.9333333  0.0000000  )
        13           C   tau(  13) = (  0.2000000  0.0000000  0.0000000  )
        14           C   tau(  14) = (  0.2666667  0.1333333  0.0000000  )
        15           C   tau(  15) = (  0.2000000  0.2000000  0.0000000  )
        16           C   tau(  16) = (  0.2666667  0.3333333  0.0000000  )
        17           C   tau(  17) = (  0.2000000  0.4000000  0.0000000  )
        18           C   tau(  18) = (  0.2666667  0.5333333  0.0000000  )
        19           C   tau(  19) = (  0.2000000  0.6000000  0.0000000  )
        20           C   tau(  20) = (  0.2666667  0.7333333  0.0000000  )
        21           C   tau(  21) = (  0.2000000  0.8000000  0.0000000  )
        22           C   tau(  22) = (  0.2666667  0.9333333  0.0000000  )
        23           C   tau(  23) = (  0.4000000  0.0000000  0.0000000  )
        24           C   tau(  24) = (  0.4666667  0.1333333  0.0000000  )
        25           C   tau(  25) = (  0.4000000  0.2000000  0.0000000  )
        26           C   tau(  26) = (  0.4666667  0.3333333  0.0000000  )
        27           C   tau(  27) = (  0.4000000  0.4000000  0.0000000  )
        28           Fe  tau(  28) = (  0.4666667  0.5333333  0.0000000  )
        29           C   tau(  29) = (  0.4000000  0.6000000  0.0000000  )
        30           C   tau(  30) = (  0.4666667  0.7333333  0.0000000  )
        31           C   tau(  31) = (  0.4000000  0.8000000  0.0000000  )
        32           C   tau(  32) = (  0.4666667  0.9333333  0.0000000  )
        33           C   tau(  33) = (  0.6000000  0.0000000  0.0000000  )
        34           C   tau(  34) = (  0.6666667  0.1333333  0.0000000  )
        35           C   tau(  35) = (  0.6000000  0.2000000  0.0000000  )
        36           C   tau(  36) = (  0.6666667  0.3333333  0.0000000  )
        37           C   tau(  37) = (  0.6000000  0.4000000  0.0000000  )
        38           C   tau(  38) = (  0.6666667  0.5333333  0.0000000  )
        39           C   tau(  39) = (  0.6000000  0.6000000  0.0000000  )
        40           C   tau(  40) = (  0.6666667  0.7333333  0.0000000  )
        41           C   tau(  41) = (  0.6000000  0.8000000  0.0000000  )
        42           C   tau(  42) = (  0.6666667  0.9333333  0.0000000  )
        43           C   tau(  43) = (  0.8000000  0.0000000  0.0000000  )
        44           C   tau(  44) = (  0.8666667  0.1333333  0.0000000  )
        45           C   tau(  45) = (  0.8000000  0.2000000  0.0000000  )
        46           C   tau(  46) = (  0.8666667  0.3333333  0.0000000  )
        47           C   tau(  47) = (  0.8000000  0.4000000  0.0000000  )
        48           C   tau(  48) = (  0.8666667  0.5333333  0.0000000  )
        49           C   tau(  49) = (  0.8000000  0.6000000  0.0000000  )
        50           C   tau(  50) = (  0.8666667  0.7333333  0.0000000  )
        51           C   tau(  51) = (  0.8000000  0.8000000  0.0000000  )
        52           C   tau(  52) = (  0.8666667  0.9333333  0.0000000  )

     number of k points=     1  Marzari-Vanderbilt smearing, width (Ry)=  0.0010
                       cart. coord. in units 2pi/alat
        k(    1) = (   0.0000000   0.0000000   0.0000000), wk =   1.0000000

                       cryst. coord.
        k(    1) = (   0.0000000   0.0000000   0.0000000), wk =   1.0000000

     Dense  grid:  1626001 G-vectors     FFT dimensions: ( 180, 180, 135)

     Smooth grid:   702581 G-vectors     FFT dimensions: ( 125, 125, 108)

     Dynamical RAM for                 wfc:      28.59 MB

     Dynamical RAM for     wfc (w. buffer):      85.76 MB

     Dynamical RAM for           str. fact:      12.41 MB

     Dynamical RAM for           local pot:       0.00 MB

     Dynamical RAM for          nlocal pot:      92.46 MB

     Dynamical RAM for                qrad:      19.73 MB

     Dynamical RAM for          rho,v,vnew:      58.92 MB

     Dynamical RAM for               rhoin:      19.64 MB

     Dynamical RAM for            rho*nmix:      66.16 MB

     Dynamical RAM for           G-vectors:      16.40 MB

     Dynamical RAM for          h,s,v(r/c):      12.00 MB

     Dynamical RAM for          <psi|beta>:       0.81 MB

     Dynamical RAM for                 psi:     114.35 MB

     Dynamical RAM for                hpsi:     114.35 MB

     Dynamical RAM for                spsi:     114.35 MB

     Dynamical RAM for      wfcinit/wfcrot:      93.90 MB

     Dynamical RAM for           addusdens:     975.89 MB

     Estimated static dynamical RAM per process >     422.14 MB

     Estimated max dynamical RAM per process >       1.37 GB

     Estimated total dynamical RAM >       8.19 GB
     Generating pointlists ...
     new r_m :   0.0252 (alat units)  0.5862 (a.u.) for type    1
     new r_m :   0.0476 (alat units)  1.1095 (a.u.) for type    2
     new r_m :   0.0476 (alat units)  1.1095 (a.u.) for type    3

     Check: negative core charge=   -0.000002

     Initial potential from superposition of free atoms

     starting charge  213.80512, renormalised to  214.00000

     negative rho (up, down):  6.310E-05 1.246E-02


---------------------------------------------------------------------------------
Carrying out rVV10 run using the following parameters:
Nqs =      20    Nr_points =    1024   r_max =   100.000
b_value =  6.30000    beta =  0.00901
     q_mesh =  0.00010000  0.00030000  0.00058939  0.00100810
               0.00161396  0.00249058  0.00375900  0.00559430
               0.00824984  0.01209221  0.01765183  0.02569619
               0.03733578  0.05417739  0.07854596  0.11380545
               0.16482331  0.23864234  0.34545298  0.50000000

Gradients computed in Reciprocal space

---------------------------------------------------------------------------------


     Starting wfcs are  208 randomized atomic wfcs

     total cpu time spent up to now is       69.3 secs

     Self-consistent Calculation

     iteration #  1     ecut=    70.00 Ry     beta= 0.30
     Davidson diagonalization with overlap
     ethr =  1.00E-02,  avg # of iterations =  2.5

     negative rho (up, down):  8.254E-05 1.241E-02

     total cpu time spent up to now is      185.4 secs

     total energy              =    -857.96169201 Ry
     Harris-Foulkes estimate   =    -858.66493132 Ry
     estimated scf accuracy    <      10.45302157 Ry

     total magnetization       =     6.00 Bohr mag/cell
     absolute magnetization    =     6.64 Bohr mag/cell

     iteration #  2     ecut=    70.00 Ry     beta= 0.30
     Davidson diagonalization with overlap
     ethr =  4.88E-03,  avg # of iterations =  2.0

     negative rho (up, down):  1.143E-04 1.303E-02

     total cpu time spent up to now is      268.9 secs

     total energy              =    -858.38402504 Ry
     Harris-Foulkes estimate   =    -858.70033749 Ry
     estimated scf accuracy    <       5.29328505 Ry

     total magnetization       =     4.00 Bohr mag/cell
     absolute magnetization    =     5.60 Bohr mag/cell

     iteration #  3     ecut=    70.00 Ry     beta= 0.30
     Davidson diagonalization with overlap
     ethr =  2.47E-03,  avg # of iterations =  3.5

     negative rho (up, down):  2.104E-04 2.457E-02

     total cpu time spent up to now is      355.4 secs

     total energy              =    -858.62945724 Ry
     Harris-Foulkes estimate   =    -859.52650640 Ry
     estimated scf accuracy    <       9.38206189 Ry

     total magnetization       =     6.00 Bohr mag/cell
     absolute magnetization    =     6.18 Bohr mag/cell

     iteration #  4     ecut=    70.00 Ry     beta= 0.30
     Davidson diagonalization with overlap
     ethr =  2.47E-03,  avg # of iterations =  6.0

     negative rho (up, down):  2.728E-04 3.595E-02

     total cpu time spent up to now is      447.0 secs

     total energy              =    -859.80474160 Ry
     Harris-Foulkes estimate   =    -859.58130903 Ry
     estimated scf accuracy    <       1.05023188 Ry

     total magnetization       =     2.00 Bohr mag/cell
     absolute magnetization    =     3.58 Bohr mag/cell

     iteration #  5     ecut=    70.00 Ry     beta= 0.30
     Davidson diagonalization with overlap
     ethr =  4.91E-04,  avg # of iterations = 11.5

     negative rho (up, down):  3.239E-04 4.129E-02

     total cpu time spent up to now is      544.6 secs

     total energy              =    -859.96720601 Ry
     Harris-Foulkes estimate   =    -859.92351229 Ry
     estimated scf accuracy    <       0.47561387 Ry

     total magnetization       =     2.00 Bohr mag/cell
     absolute magnetization    =     3.04 Bohr mag/cell

     iteration #  6     ecut=    70.00 Ry     beta= 0.30
     Davidson diagonalization with overlap
     ethr =  2.22E-04,  avg # of iterations =  1.5

     negative rho (up, down):  4.435E-04 6.069E-02

     total cpu time spent up to now is      628.2 secs

     total energy              =    -860.01612690 Ry
     Harris-Foulkes estimate   =    -859.99940082 Ry
     estimated scf accuracy    <       0.15553289 Ry

     total magnetization       =     2.00 Bohr mag/cell
     absolute magnetization    =     2.88 Bohr mag/cell

     iteration #  7     ecut=    70.00 Ry     beta= 0.30
     Davidson diagonalization with overlap
     ethr =  7.27E-05,  avg # of iterations =  7.5

     negative rho (up, down):  2.505E-03 1.014E-01

     total cpu time spent up to now is      715.2 secs

     total energy              =    -860.03743625 Ry
     Harris-Foulkes estimate   =    -860.04105571 Ry
     estimated scf accuracy    <       0.15195714 Ry

     total magnetization       =     2.00 Bohr mag/cell
     absolute magnetization    =     2.74 Bohr mag/cell

     iteration #  8     ecut=    70.00 Ry     beta= 0.30
     Davidson diagonalization with overlap
     ethr =  7.10E-05,  avg # of iterations =  6.5

     negative rho (up, down):  2.194E-03 9.014E-02

     total cpu time spent up to now is      800.8 secs

     total energy              =    -860.04188538 Ry
     Harris-Foulkes estimate   =    -860.04217143 Ry
     estimated scf accuracy    <       0.03013562 Ry

     total magnetization       =     2.03 Bohr mag/cell
     absolute magnetization    =     2.70 Bohr mag/cell

     iteration #  9     ecut=    70.00 Ry     beta= 0.30
     Davidson diagonalization with overlap
     ethr =  1.41E-05,  avg # of iterations =  6.0

     negative rho (up, down):  2.262E-03 7.953E-02

     total cpu time spent up to now is      888.2 secs

     total energy              =    -860.04357734 Ry
     Harris-Foulkes estimate   =    -860.04410578 Ry
     estimated scf accuracy    <       0.01205371 Ry

     total magnetization       =     1.59 Bohr mag/cell
     absolute magnetization    =     2.59 Bohr mag/cell

     iteration # 10     ecut=    70.00 Ry     beta= 0.30
     Davidson diagonalization with overlap
     ethr =  5.63E-06,  avg # of iterations =  7.0

     negative rho (up, down):  1.968E-03 7.650E-02

     total cpu time spent up to now is      976.1 secs

     total energy              =    -860.04368560 Ry
     Harris-Foulkes estimate   =    -860.04516703 Ry
     estimated scf accuracy    <       0.04568015 Ry

     total magnetization       =     2.00 Bohr mag/cell
     absolute magnetization    =     2.70 Bohr mag/cell

     iteration # 11     ecut=    70.00 Ry     beta= 0.30
     Davidson diagonalization with overlap
     ethr =  5.63E-06,  avg # of iterations =  1.0

     negative rho (up, down):  1.465E-03 6.451E-02

     total cpu time spent up to now is     1058.1 secs

     total energy              =    -860.04735395 Ry
     Harris-Foulkes estimate   =    -860.04624813 Ry
     estimated scf accuracy    <       0.04419996 Ry

     total magnetization       =     1.92 Bohr mag/cell
     absolute magnetization    =     2.71 Bohr mag/cell

     iteration # 12     ecut=    70.00 Ry     beta= 0.30
     Davidson diagonalization with overlap
     ethr =  5.63E-06,  avg # of iterations =  2.0

     negative rho (up, down):  1.567E-03 8.377E-02

     total cpu time spent up to now is     1142.3 secs

     total energy              =    -860.04796977 Ry
     Harris-Foulkes estimate   =    -860.04775510 Ry
     estimated scf accuracy    <       0.03716601 Ry

     total magnetization       =     1.84 Bohr mag/cell
     absolute magnetization    =     2.74 Bohr mag/cell

     iteration # 13     ecut=    70.00 Ry     beta= 0.30
     Davidson diagonalization with overlap
     ethr =  5.63E-06,  avg # of iterations =  2.0

     negative rho (up, down):  1.837E-03 1.081E-01

     total cpu time spent up to now is     1226.3 secs

     total energy              =    -860.04692660 Ry
     Harris-Foulkes estimate   =    -860.04800747 Ry
     estimated scf accuracy    <       0.02785107 Ry

     total magnetization       =     1.93 Bohr mag/cell
     absolute magnetization    =     2.75 Bohr mag/cell

     iteration # 14     ecut=    70.00 Ry     beta= 0.30
     Davidson diagonalization with overlap
     ethr =  5.63E-06,  avg # of iterations =  1.0

     negative rho (up, down):  1.793E-03 1.193E-01

     total cpu time spent up to now is     1308.3 secs

     total energy              =    -860.04623061 Ry
     Harris-Foulkes estimate   =    -860.04705121 Ry
     estimated scf accuracy    <       0.02087654 Ry

     total magnetization       =     2.09 Bohr mag/cell
     absolute magnetization    =     2.77 Bohr mag/cell

     iteration # 15     ecut=    70.00 Ry     beta= 0.30
     Davidson diagonalization with overlap
     ethr =  5.63E-06,  avg # of iterations =  2.0

     negative rho (up, down):  6.435E-04 1.113E-01

     total cpu time spent up to now is     1391.6 secs

     total energy              =    -860.04552691 Ry
     Harris-Foulkes estimate   =    -860.04638283 Ry
     estimated scf accuracy    <       0.01814851 Ry

     total magnetization       =     2.12 Bohr mag/cell
     absolute magnetization    =     2.78 Bohr mag/cell

     iteration # 16     ecut=    70.00 Ry     beta= 0.30
     Davidson diagonalization with overlap
     ethr =  5.63E-06,  avg # of iterations =  4.5

     negative rho (up, down):  7.094E-04 9.723E-02

     total cpu time spent up to now is     1485.7 secs

     total energy              =    -860.04730760 Ry
     Harris-Foulkes estimate   =    -860.04779663 Ry
     estimated scf accuracy    <       0.00270822 Ry

     total magnetization       =     2.17 Bohr mag/cell
     absolute magnetization    =     2.82 Bohr mag/cell

     iteration # 17     ecut=    70.00 Ry     beta= 0.30
     Davidson diagonalization with overlap
     ethr =  1.27E-06,  avg # of iterations =  3.0

     negative rho (up, down):  8.146E-04 9.061E-02

     total cpu time spent up to now is     1569.3 secs

     total energy              =    -860.04769302 Ry
     Harris-Foulkes estimate   =    -860.04777528 Ry
     estimated scf accuracy    <       0.01875795 Ry

     total magnetization       =     2.17 Bohr mag/cell
     absolute magnetization    =     2.75 Bohr mag/cell

     iteration # 18     ecut=    70.00 Ry     beta= 0.30
     Davidson diagonalization with overlap
     ethr =  1.27E-06,  avg # of iterations =  1.0

     negative rho (up, down):  9.402E-04 9.525E-02

     total cpu time spent up to now is     1652.4 secs

     total energy              =    -860.04729034 Ry
     Harris-Foulkes estimate   =    -860.04770098 Ry
     estimated scf accuracy    <       0.01891825 Ry

     total magnetization       =     2.16 Bohr mag/cell
     absolute magnetization    =     2.75 Bohr mag/cell

     iteration # 19     ecut=    70.00 Ry     beta= 0.30
     Davidson diagonalization with overlap
     ethr =  1.27E-06,  avg # of iterations =  2.0

     negative rho (up, down):  1.050E-03 9.558E-02

     total cpu time spent up to now is     1735.9 secs

     total energy              =    -860.04751680 Ry
     Harris-Foulkes estimate   =    -860.04753038 Ry
     estimated scf accuracy    <       0.02192305 Ry

     total magnetization       =     1.65 Bohr mag/cell
     absolute magnetization    =     2.87 Bohr mag/cell

     iteration # 20     ecut=    70.00 Ry     beta= 0.30
     Davidson diagonalization with overlap
     ethr =  1.27E-06,  avg # of iterations =  1.0

     negative rho (up, down):  1.086E-03 9.278E-02

     total cpu time spent up to now is     1818.7 secs

     total energy              =    -860.04748798 Ry
     Harris-Foulkes estimate   =    -860.04755128 Ry
     estimated scf accuracy    <       0.02423894 Ry

     total magnetization       =     1.48 Bohr mag/cell
     absolute magnetization    =     2.75 Bohr mag/cell

     iteration # 21     ecut=    70.00 Ry     beta= 0.30
     Davidson diagonalization with overlap
     ethr =  1.27E-06,  avg # of iterations =  1.0

     negative rho (up, down):  7.975E-04 1.197E-01

     total cpu time spent up to now is     1900.3 secs

     total energy              =    -860.03121573 Ry
     Harris-Foulkes estimate   =    -860.04749173 Ry
     estimated scf accuracy    <       0.02445615 Ry

     total magnetization       =     1.49 Bohr mag/cell
     absolute magnetization    =     2.75 Bohr mag/cell

     iteration # 22     ecut=    70.00 Ry     beta= 0.30
     Davidson diagonalization with overlap
     ethr =  1.27E-06,  avg # of iterations =  8.0

     negative rho (up, down):  6.186E-04 5.199E-02

     total cpu time spent up to now is     2043.1 secs

     total energy              =    -860.04205711 Ry
     Harris-Foulkes estimate   =    -860.05672787 Ry
     estimated scf accuracy    <       0.17577566 Ry

     total magnetization       =     2.00 Bohr mag/cell
     absolute magnetization    =     2.71 Bohr mag/cell

     iteration # 23     ecut=    70.00 Ry     beta= 0.30
     Davidson diagonalization with overlap
     ethr =  1.27E-06,  avg # of iterations =  5.5

     negative rho (up, down):  6.737E-04 8.262E-02

     total cpu time spent up to now is     2169.8 secs

     total energy              =    -860.04896578 Ry
     Harris-Foulkes estimate   =    -860.04945524 Ry
     estimated scf accuracy    <       0.00640856 Ry

     total magnetization       =     2.00 Bohr mag/cell
     absolute magnetization    =     2.83 Bohr mag/cell

     iteration # 24     ecut=    70.00 Ry     beta= 0.30
     Davidson diagonalization with overlap
     ethr =  1.27E-06,  avg # of iterations =  2.0

     negative rho (up, down):  7.034E-04 8.547E-02

     total cpu time spent up to now is     2255.0 secs

     total energy              =    -860.04939079 Ry
     Harris-Foulkes estimate   =    -860.04922060 Ry
     estimated scf accuracy    <       0.00219977 Ry

     total magnetization       =     2.00 Bohr mag/cell
     absolute magnetization    =     2.81 Bohr mag/cell

     iteration # 25     ecut=    70.00 Ry     beta= 0.30
     Davidson diagonalization with overlap
     ethr =  1.03E-06,  avg # of iterations =  2.0

     negative rho (up, down):  6.441E-04 7.862E-02

     total cpu time spent up to now is     2338.4 secs

     total energy              =    -860.04974744 Ry
     Harris-Foulkes estimate   =    -860.04945867 Ry
     estimated scf accuracy    <       0.00293195 Ry

     total magnetization       =     2.00 Bohr mag/cell
     absolute magnetization    =     2.81 Bohr mag/cell

     iteration # 26     ecut=    70.00 Ry     beta= 0.30
     Davidson diagonalization with overlap
     ethr =  1.03E-06,  avg # of iterations =  2.0

     negative rho (up, down):  6.499E-04 8.157E-02

     total cpu time spent up to now is     2429.0 secs

     total energy              =    -860.05033201 Ry
     Harris-Foulkes estimate   =    -860.04999142 Ry
     estimated scf accuracy    <       0.00308824 Ry

     total magnetization       =     2.00 Bohr mag/cell
     absolute magnetization    =     2.85 Bohr mag/cell

     iteration # 27     ecut=    70.00 Ry     beta= 0.30
     Davidson diagonalization with overlap
     ethr =  1.03E-06,  avg # of iterations =  2.0

     negative rho (up, down):  6.645E-04 9.506E-02

     total cpu time spent up to now is     2512.1 secs

     total energy              =    -860.05020693 Ry
     Harris-Foulkes estimate   =    -860.05035748 Ry
     estimated scf accuracy    <       0.00494396 Ry

     total magnetization       =     2.00 Bohr mag/cell
     absolute magnetization    =     2.93 Bohr mag/cell

     iteration # 28     ecut=    70.00 Ry     beta= 0.30
     Davidson diagonalization with overlap
     ethr =  1.03E-06,  avg # of iterations =  2.0

     negative rho (up, down):  6.745E-04 1.050E-01

     total cpu time spent up to now is     2597.1 secs

     total energy              =    -860.04998145 Ry
     Harris-Foulkes estimate   =    -860.05041506 Ry
     estimated scf accuracy    <       0.00494820 Ry

     total magnetization       =     2.00 Bohr mag/cell
     absolute magnetization    =     2.80 Bohr mag/cell

     iteration # 29     ecut=    70.00 Ry     beta= 0.30
     Davidson diagonalization with overlap
     ethr =  1.03E-06,  avg # of iterations =  1.5

     negative rho (up, down):  6.080E-04 1.030E-01

     total cpu time spent up to now is     2680.6 secs

     total energy              =    -860.04972405 Ry
     Harris-Foulkes estimate   =    -860.05002579 Ry
     estimated scf accuracy    <       0.00510879 Ry

     total magnetization       =     2.00 Bohr mag/cell
     absolute magnetization    =     2.79 Bohr mag/cell

     iteration # 30     ecut=    70.00 Ry     beta= 0.30
     Davidson diagonalization with overlap
     ethr =  1.03E-06,  avg # of iterations =  2.0

     negative rho (up, down):  6.313E-04 9.938E-02

     total cpu time spent up to now is     2771.2 secs

     total energy              =    -860.05038040 Ry
     Harris-Foulkes estimate   =    -860.05005476 Ry
     estimated scf accuracy    <       0.00263753 Ry

     total magnetization       =     2.00 Bohr mag/cell
     absolute magnetization    =     2.76 Bohr mag/cell

     iteration # 31     ecut=    70.00 Ry     beta= 0.30
     Davidson diagonalization with overlap
     ethr =  1.03E-06,  avg # of iterations =  2.0

     negative rho (up, down):  6.462E-04 1.045E-01

     total cpu time spent up to now is     2858.4 secs

     total energy              =    -860.05033604 Ry
     Harris-Foulkes estimate   =    -860.05068194 Ry
     estimated scf accuracy    <       0.00317867 Ry

     total magnetization       =     2.00 Bohr mag/cell
     absolute magnetization    =     2.80 Bohr mag/cell

     iteration # 32     ecut=    70.00 Ry     beta= 0.30
     Davidson diagonalization with overlap
     ethr =  1.03E-06,  avg # of iterations =  2.0

     negative rho (up, down):  6.084E-04 1.069E-01

     total cpu time spent up to now is     2941.0 secs

     total energy              =    -860.05022086 Ry
     Harris-Foulkes estimate   =    -860.05044366 Ry
     estimated scf accuracy    <       0.00297866 Ry

     total magnetization       =     2.00 Bohr mag/cell
     absolute magnetization    =     2.78 Bohr mag/cell

     iteration # 33     ecut=    70.00 Ry     beta= 0.30
     Davidson diagonalization with overlap
     ethr =  1.03E-06,  avg # of iterations =  2.0

     negative rho (up, down):  6.630E-04 1.242E-01

     total cpu time spent up to now is     3033.4 secs

     total energy              =    -860.04763342 Ry
     Harris-Foulkes estimate   =    -860.05124730 Ry
     estimated scf accuracy    <       0.01391492 Ry

     total magnetization       =     2.00 Bohr mag/cell
     absolute magnetization    =     2.85 Bohr mag/cell

     iteration # 34     ecut=    70.00 Ry     beta= 0.30
     Davidson diagonalization with overlap
     ethr =  1.03E-06,  avg # of iterations =  3.0

     negative rho (up, down):  6.098E-04 1.014E-01

     total cpu time spent up to now is     3131.6 secs

     total energy              =    -860.05128958 Ry
     Harris-Foulkes estimate   =    -860.05052437 Ry
     estimated scf accuracy    <       0.00307117 Ry

     total magnetization       =     2.00 Bohr mag/cell
     absolute magnetization    =     2.77 Bohr mag/cell

     iteration # 35     ecut=    70.00 Ry     beta= 0.30
     Davidson diagonalization with overlap
     ethr =  1.03E-06,  avg # of iterations =  2.0

     negative rho (up, down):  6.594E-04 1.280E-01

     total cpu time spent up to now is     3216.4 secs

     total energy              =    -860.04987691 Ry
     Harris-Foulkes estimate   =    -860.05147673 Ry
     estimated scf accuracy    <       0.00342605 Ry

     total magnetization       =     2.00 Bohr mag/cell
     absolute magnetization    =     2.79 Bohr mag/cell

     iteration # 36     ecut=    70.00 Ry     beta= 0.30
     Davidson diagonalization with overlap
     ethr =  1.03E-06,  avg # of iterations =  2.0

     negative rho (up, down):  7.506E-04 1.587E-01

     total cpu time spent up to now is     3304.2 secs

     total energy              =    -860.04673681 Ry
     Harris-Foulkes estimate   =    -860.05021855 Ry
     estimated scf accuracy    <       0.00261431 Ry

     total magnetization       =     2.00 Bohr mag/cell
     absolute magnetization    =     2.80 Bohr mag/cell

     iteration # 37     ecut=    70.00 Ry     beta= 0.30
     Davidson diagonalization with overlap
     ethr =  1.03E-06,  avg # of iterations =  3.0

     negative rho (up, down):  7.305E-04 1.509E-01

     total cpu time spent up to now is     3400.6 secs

     total energy              =    -860.04786380 Ry
     Harris-Foulkes estimate   =    -860.04859116 Ry
     estimated scf accuracy    <       0.00174688 Ry

     total magnetization       =     2.00 Bohr mag/cell
     absolute magnetization    =     2.83 Bohr mag/cell

     iteration # 38     ecut=    70.00 Ry     beta= 0.30
     Davidson diagonalization with overlap
     ethr =  8.16E-07,  avg # of iterations =  2.0

     negative rho (up, down):  6.457E-04 1.304E-01

     total cpu time spent up to now is     3491.8 secs

     total energy              =    -860.04820180 Ry
     Harris-Foulkes estimate   =    -860.04836571 Ry
     estimated scf accuracy    <       0.00105202 Ry

     total magnetization       =     2.03 Bohr mag/cell
     absolute magnetization    =     2.86 Bohr mag/cell

     iteration # 39     ecut=    70.00 Ry     beta= 0.30
     Davidson diagonalization with overlap
     ethr =  4.92E-07,  avg # of iterations =  2.5

     negative rho (up, down):  6.208E-04 8.156E-02

     total cpu time spent up to now is     3584.4 secs

     total energy              =    -860.04857995 Ry
     Harris-Foulkes estimate   =    -860.04869164 Ry
     estimated scf accuracy    <       0.00086746 Ry

     total magnetization       =     2.14 Bohr mag/cell
     absolute magnetization    =     2.84 Bohr mag/cell

     iteration # 40     ecut=    70.00 Ry     beta= 0.30
     Davidson diagonalization with overlap
     ethr =  4.05E-07,  avg # of iterations =  2.0

     negative rho (up, down):  6.686E-04 8.523E-02

     total cpu time spent up to now is     3674.9 secs

     total energy              =    -860.04782077 Ry
     Harris-Foulkes estimate   =    -860.04884583 Ry
     estimated scf accuracy    <       0.00566585 Ry

     total magnetization       =     2.00 Bohr mag/cell
     absolute magnetization    =     2.98 Bohr mag/cell

     iteration # 41     ecut=    70.00 Ry     beta= 0.30
     Davidson diagonalization with overlap
     ethr =  4.05E-07,  avg # of iterations =  2.5

     negative rho (up, down):  6.224E-04 5.855E-02

     total cpu time spent up to now is     3770.1 secs

     total energy              =    -860.04862705 Ry
     Harris-Foulkes estimate   =    -860.04864686 Ry
     estimated scf accuracy    <       0.00161343 Ry

     total magnetization       =     2.12 Bohr mag/cell
     absolute magnetization    =     2.88 Bohr mag/cell

     iteration # 42     ecut=    70.00 Ry     beta= 0.30
     Davidson diagonalization with overlap
     ethr =  4.05E-07,  avg # of iterations =  2.0

     negative rho (up, down):  6.080E-04 3.598E-02

     total cpu time spent up to now is     3856.5 secs

     total energy              =    -860.04880857 Ry
     Harris-Foulkes estimate   =    -860.04874843 Ry
     estimated scf accuracy    <       0.00045812 Ry

     total magnetization       =     2.08 Bohr mag/cell
     absolute magnetization    =     2.87 Bohr mag/cell

     iteration # 43     ecut=    70.00 Ry     beta= 0.30
     Davidson diagonalization with overlap
     ethr =  2.14E-07,  avg # of iterations =  2.5

     negative rho (up, down):  6.071E-04 2.197E-02

     total cpu time spent up to now is     3939.5 secs

     total energy              =    -860.04885894 Ry
     Harris-Foulkes estimate   =    -860.04884758 Ry
     estimated scf accuracy    <       0.00018094 Ry

     total magnetization       =     2.07 Bohr mag/cell
     absolute magnetization    =     2.89 Bohr mag/cell

     iteration # 44     ecut=    70.00 Ry     beta= 0.30
     Davidson diagonalization with overlap
     ethr =  8.46E-08,  avg # of iterations =  2.0

     negative rho (up, down):  6.085E-04 2.364E-02

     total cpu time spent up to now is     4027.1 secs

     total energy              =    -860.04887762 Ry
     Harris-Foulkes estimate   =    -860.04888583 Ry
     estimated scf accuracy    <       0.00015791 Ry

     total magnetization       =     2.06 Bohr mag/cell
     absolute magnetization    =     2.90 Bohr mag/cell

     iteration # 45     ecut=    70.00 Ry     beta= 0.30
     Davidson diagonalization with overlap
     ethr =  7.38E-08,  avg # of iterations =  1.0

     negative rho (up, down):  6.043E-04 1.669E-02

     total cpu time spent up to now is     4107.1 secs

     total energy              =    -860.04891143 Ry
     Harris-Foulkes estimate   =    -860.04887890 Ry
     estimated scf accuracy    <       0.00019992 Ry

     total magnetization       =     2.05 Bohr mag/cell
     absolute magnetization    =     2.89 Bohr mag/cell

     iteration # 46     ecut=    70.00 Ry     beta= 0.30
     Davidson diagonalization with overlap
     ethr =  7.38E-08,  avg # of iterations =  2.5

     negative rho (up, down):  6.129E-04 2.872E-02

     total cpu time spent up to now is     4197.5 secs

     total energy              =    -860.04886359 Ry
     Harris-Foulkes estimate   =    -860.04894796 Ry
     estimated scf accuracy    <       0.00023830 Ry

     total magnetization       =     2.06 Bohr mag/cell
     absolute magnetization    =     2.89 Bohr mag/cell

     iteration # 47     ecut=    70.00 Ry     beta= 0.30
     Davidson diagonalization with overlap
     ethr =  7.38E-08,  avg # of iterations =  2.5

     negative rho (up, down):  6.250E-04 4.132E-02

     total cpu time spent up to now is     4285.9 secs

     total energy              =    -860.04877125 Ry
     Harris-Foulkes estimate   =    -860.04889066 Ry
     estimated scf accuracy    <       0.00013267 Ry

     total magnetization       =     2.06 Bohr mag/cell
     absolute magnetization    =     2.92 Bohr mag/cell

     iteration # 48     ecut=    70.00 Ry     beta= 0.30
     Davidson diagonalization with overlap
     ethr =  6.20E-08,  avg # of iterations =  3.0

     negative rho (up, down):  6.255E-04 3.676E-02

     total cpu time spent up to now is     4385.2 secs

     total energy              =    -860.04882556 Ry
     Harris-Foulkes estimate   =    -860.04882325 Ry
     estimated scf accuracy    <       0.00024892 Ry

     total magnetization       =     2.11 Bohr mag/cell
     absolute magnetization    =     2.92 Bohr mag/cell

     iteration # 49     ecut=    70.00 Ry     beta= 0.30
     Davidson diagonalization with overlap
     ethr =  6.20E-08,  avg # of iterations =  2.0

     negative rho (up, down):  6.218E-04 3.667E-02

     total cpu time spent up to now is     4470.1 secs

     total energy              =    -860.04878339 Ry
     Harris-Foulkes estimate   =    -860.04883086 Ry
     estimated scf accuracy    <       0.00031434 Ry

     total magnetization       =     2.11 Bohr mag/cell
     absolute magnetization    =     2.92 Bohr mag/cell

     iteration # 50     ecut=    70.00 Ry     beta= 0.30
     Davidson diagonalization with overlap
     ethr =  6.20E-08,  avg # of iterations =  2.0

     negative rho (up, down):  6.200E-04 3.441E-02

     total cpu time spent up to now is     4564.2 secs

     total energy              =    -860.04881482 Ry
     Harris-Foulkes estimate   =    -860.04882636 Ry
     estimated scf accuracy    <       0.00038730 Ry

     total magnetization       =     2.10 Bohr mag/cell
     absolute magnetization    =     2.92 Bohr mag/cell

     iteration # 51     ecut=    70.00 Ry     beta= 0.30
     Davidson diagonalization with overlap
     ethr =  6.20E-08,  avg # of iterations =  2.0

     negative rho (up, down):  6.087E-04 2.066E-02

     total cpu time spent up to now is     4650.0 secs

     total energy              =    -860.04874740 Ry
     Harris-Foulkes estimate   =    -860.04882314 Ry
     estimated scf accuracy    <       0.00033199 Ry

     total magnetization       =     2.10 Bohr mag/cell
     absolute magnetization    =     2.92 Bohr mag/cell

     iteration # 52     ecut=    70.00 Ry     beta= 0.30
     Davidson diagonalization with overlap
     ethr =  6.20E-08,  avg # of iterations =  3.5

     negative rho (up, down):  6.087E-04 1.995E-02

     total cpu time spent up to now is     4762.5 secs

     total energy              =    -860.04892531 Ry
     Harris-Foulkes estimate   =    -860.04892873 Ry
     estimated scf accuracy    <       0.00010171 Ry

     total magnetization       =     2.06 Bohr mag/cell
     absolute magnetization    =     2.91 Bohr mag/cell

     iteration # 53     ecut=    70.00 Ry     beta= 0.30
     Davidson diagonalization with overlap
     ethr =  4.75E-08,  avg # of iterations =  2.0

     negative rho (up, down):  6.073E-04 1.727E-02

     total cpu time spent up to now is     4845.9 secs

     total energy              =    -860.04896295 Ry
     Harris-Foulkes estimate   =    -860.04893354 Ry
     estimated scf accuracy    <       0.00010278 Ry

     total magnetization       =     2.05 Bohr mag/cell
     absolute magnetization    =     2.92 Bohr mag/cell

     iteration # 54     ecut=    70.00 Ry     beta= 0.30
     Davidson diagonalization with overlap
     ethr =  4.75E-08,  avg # of iterations =  2.5

     negative rho (up, down):  6.107E-04 2.559E-02

     total cpu time spent up to now is     4939.7 secs

     total energy              =    -860.04883433 Ry
     Harris-Foulkes estimate   =    -860.04897778 Ry
     estimated scf accuracy    <       0.00025034 Ry

     total magnetization       =     2.03 Bohr mag/cell
     absolute magnetization    =     2.91 Bohr mag/cell

     iteration # 55     ecut=    70.00 Ry     beta= 0.30
     Davidson diagonalization with overlap
     ethr =  4.75E-08,  avg # of iterations =  3.0

     negative rho (up, down):  6.112E-04 2.612E-02

     total cpu time spent up to now is     5041.1 secs

     total energy              =    -860.04890511 Ry
     Harris-Foulkes estimate   =    -860.04890892 Ry
     estimated scf accuracy    <       0.00020054 Ry

     total magnetization       =     2.04 Bohr mag/cell
     absolute magnetization    =     2.90 Bohr mag/cell

     iteration # 56     ecut=    70.00 Ry     beta= 0.30
     Davidson diagonalization with overlap
     ethr =  4.75E-08,  avg # of iterations =  2.0

     negative rho (up, down):  6.069E-04 2.099E-02

     total cpu time spent up to now is     5128.2 secs

     total energy              =    -860.04892908 Ry
     Harris-Foulkes estimate   =    -860.04890806 Ry
     estimated scf accuracy    <       0.00025083 Ry

     total magnetization       =     2.04 Bohr mag/cell
     absolute magnetization    =     2.89 Bohr mag/cell

     iteration # 57     ecut=    70.00 Ry     beta= 0.30
     Davidson diagonalization with overlap
     ethr =  4.75E-08,  avg # of iterations =  2.5

     negative rho (up, down):  6.050E-04 1.956E-02

     total cpu time spent up to now is     5225.2 secs

     total energy              =    -860.04897341 Ry
     Harris-Foulkes estimate   =    -860.04897212 Ry
     estimated scf accuracy    <       0.00009677 Ry

     total magnetization       =     2.05 Bohr mag/cell
     absolute magnetization    =     2.94 Bohr mag/cell

     iteration # 58     ecut=    70.00 Ry     beta= 0.30
     Davidson diagonalization with overlap
     ethr =  4.52E-08,  avg # of iterations =  2.5

     negative rho (up, down):  6.446E-04 4.796E-02

     total cpu time spent up to now is     5310.0 secs

     total energy              =    -860.04867464 Ry
     Harris-Foulkes estimate   =    -860.04897722 Ry
     estimated scf accuracy    <       0.00011352 Ry

     total magnetization       =     2.04 Bohr mag/cell
     absolute magnetization    =     2.91 Bohr mag/cell

     iteration # 59     ecut=    70.00 Ry     beta= 0.30
     Davidson diagonalization with overlap
     ethr =  4.52E-08,  avg # of iterations =  3.5

     negative rho (up, down):  6.538E-04 5.016E-02

     total cpu time spent up to now is     5431.2 secs

     total energy              =    -860.04886074 Ry
     Harris-Foulkes estimate   =    -860.04888823 Ry
     estimated scf accuracy    <       0.00101426 Ry

     total magnetization       =     2.14 Bohr mag/cell
     absolute magnetization    =     2.94 Bohr mag/cell

     iteration # 60     ecut=    70.00 Ry     beta= 0.30
     Davidson diagonalization with overlap
     ethr =  4.52E-08,  avg # of iterations =  2.5

     negative rho (up, down):  6.429E-04 4.470E-02

     total cpu time spent up to now is     5521.2 secs

     total energy              =    -860.04888990 Ry
     Harris-Foulkes estimate   =    -860.04888619 Ry
     estimated scf accuracy    <       0.00232701 Ry

     total magnetization       =     2.16 Bohr mag/cell
     absolute magnetization    =     2.93 Bohr mag/cell

     iteration # 61     ecut=    70.00 Ry     beta= 0.30
     Davidson diagonalization with overlap
     ethr =  4.52E-08,  avg # of iterations =  1.0

     negative rho (up, down):  6.175E-04 2.396E-02

     total cpu time spent up to now is     5606.7 secs

     total energy              =    -860.04872490 Ry
     Harris-Foulkes estimate   =    -860.04889057 Ry
     estimated scf accuracy    <       0.00218081 Ry

     total magnetization       =     2.16 Bohr mag/cell
     absolute magnetization    =     2.93 Bohr mag/cell

     iteration # 62     ecut=    70.00 Ry     beta= 0.30
     Davidson diagonalization with overlap
     ethr =  4.52E-08,  avg # of iterations =  3.5

     negative rho (up, down):  6.523E-04 4.624E-02

     total cpu time spent up to now is     5723.0 secs

     total energy              =    -860.04873505 Ry
     Harris-Foulkes estimate   =    -860.04897866 Ry
     estimated scf accuracy    <       0.00010437 Ry

     total magnetization       =     2.06 Bohr mag/cell
     absolute magnetization    =     2.95 Bohr mag/cell

     iteration # 63     ecut=    70.00 Ry     beta= 0.30
     Davidson diagonalization with overlap
     ethr =  4.52E-08,  avg # of iterations =  3.5

     negative rho (up, down):  6.073E-04 3.239E-02

     total cpu time spent up to now is     5837.4 secs

     total energy              =    -860.04878893 Ry
     Harris-Foulkes estimate   =    -860.04896167 Ry
     estimated scf accuracy    <       0.00139489 Ry

     total magnetization       =     2.00 Bohr mag/cell
     absolute magnetization    =     2.92 Bohr mag/cell

     iteration # 64     ecut=    70.00 Ry     beta= 0.30
     Davidson diagonalization with overlap
     ethr =  4.52E-08,  avg # of iterations =  3.5

     negative rho (up, down):  6.096E-04 3.923E-02

     total cpu time spent up to now is     5941.7 secs

     total energy              =    -860.04884423 Ry
     Harris-Foulkes estimate   =    -860.04892320 Ry
     estimated scf accuracy    <       0.00020324 Ry

     total magnetization       =     2.01 Bohr mag/cell
     absolute magnetization    =     2.87 Bohr mag/cell

     iteration # 65     ecut=    70.00 Ry     beta= 0.30
     Davidson diagonalization with overlap
     ethr =  4.52E-08,  avg # of iterations =  3.0

     negative rho (up, down):  6.076E-04 3.125E-02

     total cpu time spent up to now is     6034.0 secs

     total energy              =    -860.04889364 Ry
     Harris-Foulkes estimate   =    -860.04891190 Ry
     estimated scf accuracy    <       0.00006776 Ry

     total magnetization       =     2.00 Bohr mag/cell
     absolute magnetization    =     2.86 Bohr mag/cell

     iteration # 66     ecut=    70.00 Ry     beta= 0.30
     Davidson diagonalization with overlap
     ethr =  3.17E-08,  avg # of iterations =  2.0

     negative rho (up, down):  6.071E-04 2.057E-02

     total cpu time spent up to now is     6116.5 secs

     total energy              =    -860.04891597 Ry
     Harris-Foulkes estimate   =    -860.04890042 Ry
     estimated scf accuracy    <       0.00006734 Ry

     total magnetization       =     2.00 Bohr mag/cell
     absolute magnetization    =     2.86 Bohr mag/cell

     iteration # 67     ecut=    70.00 Ry     beta= 0.30
     Davidson diagonalization with overlap
     ethr =  3.15E-08,  avg # of iterations =  2.5

     negative rho (up, down):  6.077E-04 2.261E-02

     total cpu time spent up to now is     6204.7 secs

     total energy              =    -860.04892032 Ry
     Harris-Foulkes estimate   =    -860.04893141 Ry
     estimated scf accuracy    <       0.00011831 Ry

     total magnetization       =     2.01 Bohr mag/cell
     absolute magnetization    =     2.88 Bohr mag/cell

     iteration # 68     ecut=    70.00 Ry     beta= 0.30
     Davidson diagonalization with overlap
     ethr =  3.15E-08,  avg # of iterations =  2.0

     negative rho (up, down):  6.080E-04 2.247E-02

     total cpu time spent up to now is     6284.4 secs

     total energy              =    -860.04892337 Ry
     Harris-Foulkes estimate   =    -860.04892272 Ry
     estimated scf accuracy    <       0.00021354 Ry

     total magnetization       =     2.01 Bohr mag/cell
     absolute magnetization    =     2.90 Bohr mag/cell

     iteration # 69     ecut=    70.00 Ry     beta= 0.30
     Davidson diagonalization with overlap
     ethr =  3.15E-08,  avg # of iterations =  1.5

     negative rho (up, down):  6.176E-04 3.114E-02

     total cpu time spent up to now is     6362.7 secs

     total energy              =    -860.04888124 Ry
     Harris-Foulkes estimate   =    -860.04892618 Ry
     estimated scf accuracy    <       0.00016388 Ry

     total magnetization       =     2.01 Bohr mag/cell
     absolute magnetization    =     2.88 Bohr mag/cell

     iteration # 70     ecut=    70.00 Ry     beta= 0.30
     Davidson diagonalization with overlap
     ethr =  3.15E-08,  avg # of iterations =  3.5

     negative rho (up, down):  6.290E-04 3.654E-02

     total cpu time spent up to now is     6466.2 secs

     total energy              =    -860.04895107 Ry
     Harris-Foulkes estimate   =    -860.04893873 Ry
     estimated scf accuracy    <       0.00070330 Ry

     total magnetization       =     2.00 Bohr mag/cell
     absolute magnetization    =     2.86 Bohr mag/cell

     iteration # 71     ecut=    70.00 Ry     beta= 0.30
     Davidson diagonalization with overlap
     ethr =  3.15E-08,  avg # of iterations =  2.5

     negative rho (up, down):  6.506E-04 4.397E-02

     total cpu time spent up to now is     6558.6 secs

     total energy              =    -860.04900049 Ry
     Harris-Foulkes estimate   =    -860.04898835 Ry
     estimated scf accuracy    <       0.00430794 Ry

     total magnetization       =     2.00 Bohr mag/cell
     absolute magnetization    =     2.90 Bohr mag/cell

     iteration # 72     ecut=    70.00 Ry     beta= 0.30
     Davidson diagonalization with overlap
     ethr =  3.15E-08,  avg # of iterations =  2.5

     negative rho (up, down):  6.776E-04 5.029E-02

     total cpu time spent up to now is     6641.6 secs

     total energy              =    -860.04899607 Ry
     Harris-Foulkes estimate   =    -860.04901668 Ry
     estimated scf accuracy    <       0.00844168 Ry

     total magnetization       =     2.00 Bohr mag/cell
     absolute magnetization    =     2.93 Bohr mag/cell

     iteration # 73     ecut=    70.00 Ry     beta= 0.30
     Davidson diagonalization with overlap
     ethr =  3.15E-08,  avg # of iterations =  2.0

     negative rho (up, down):  6.745E-04 4.640E-02

     total cpu time spent up to now is     6722.8 secs

     total energy              =    -860.04879250 Ry
     Harris-Foulkes estimate   =    -860.04900032 Ry
     estimated scf accuracy    <       0.00848759 Ry

     total magnetization       =     2.00 Bohr mag/cell
     absolute magnetization    =     2.93 Bohr mag/cell

     iteration # 74     ecut=    70.00 Ry     beta= 0.30
     Davidson diagonalization with overlap
     ethr =  3.15E-08,  avg # of iterations =  3.5

     negative rho (up, down):  6.457E-04 3.673E-02

     total cpu time spent up to now is     6823.5 secs

     total energy              =    -860.04891483 Ry
     Harris-Foulkes estimate   =    -860.04890422 Ry
     estimated scf accuracy    <       0.00035881 Ry

     total magnetization       =     2.00 Bohr mag/cell
     absolute magnetization    =     2.85 Bohr mag/cell

     iteration # 75     ecut=    70.00 Ry     beta= 0.30
     Davidson diagonalization with overlap
     ethr =  3.15E-08,  avg # of iterations =  2.5

     negative rho (up, down):  6.322E-04 3.150E-02

     total cpu time spent up to now is     6907.8 secs

     total energy              =    -860.04894418 Ry
     Harris-Foulkes estimate   =    -860.04892497 Ry
     estimated scf accuracy    <       0.00026731 Ry

     total magnetization       =     2.00 Bohr mag/cell
     absolute magnetization    =     2.85 Bohr mag/cell

     iteration # 76     ecut=    70.00 Ry     beta= 0.30
     Davidson diagonalization with overlap
     ethr =  3.15E-08,  avg # of iterations =  2.0

     negative rho (up, down):  6.256E-04 3.118E-02

     total cpu time spent up to now is     6987.9 secs

     total energy              =    -860.04891517 Ry
     Harris-Foulkes estimate   =    -860.04894768 Ry
     estimated scf accuracy    <       0.00037994 Ry

     total magnetization       =     2.00 Bohr mag/cell
     absolute magnetization    =     2.85 Bohr mag/cell

     iteration # 77     ecut=    70.00 Ry     beta= 0.30
     Davidson diagonalization with overlap
     ethr =  3.15E-08,  avg # of iterations =  2.5

     negative rho (up, down):  6.220E-04 3.533E-02

     total cpu time spent up to now is     7072.6 secs

     total energy              =    -860.04884508 Ry
     Harris-Foulkes estimate   =    -860.04892542 Ry
     estimated scf accuracy    <       0.00021382 Ry

     total magnetization       =     2.01 Bohr mag/cell
     absolute magnetization    =     2.86 Bohr mag/cell

     iteration # 78     ecut=    70.00 Ry     beta= 0.30
     Davidson diagonalization with overlap
     ethr =  3.15E-08,  avg # of iterations =  2.5

     negative rho (up, down):  6.154E-04 2.820E-02

     total cpu time spent up to now is     7164.8 secs

     total energy              =    -860.04890236 Ry
     Harris-Foulkes estimate   =    -860.04889030 Ry
     estimated scf accuracy    <       0.00002723 Ry

     total magnetization       =     2.02 Bohr mag/cell
     absolute magnetization    =     2.88 Bohr mag/cell

     iteration # 79     ecut=    70.00 Ry     beta= 0.30
     Davidson diagonalization with overlap
     ethr =  1.27E-08,  avg # of iterations =  2.0

     negative rho (up, down):  6.124E-04 2.401E-02

     total cpu time spent up to now is     7243.5 secs

     total energy              =    -860.04890479 Ry
     Harris-Foulkes estimate   =    -860.04890322 Ry
     estimated scf accuracy    <       0.00003792 Ry

     total magnetization       =     2.02 Bohr mag/cell
     absolute magnetization    =     2.87 Bohr mag/cell

     iteration # 80     ecut=    70.00 Ry     beta= 0.30
     Davidson diagonalization with overlap
     ethr =  1.27E-08,  avg # of iterations =  2.0

     negative rho (up, down):  6.108E-04 2.278E-02

     total cpu time spent up to now is     7322.1 secs

     total energy              =    -860.04890344 Ry
     Harris-Foulkes estimate   =    -860.04890529 Ry
     estimated scf accuracy    <       0.00003798 Ry

     total magnetization       =     2.02 Bohr mag/cell
     absolute magnetization    =     2.87 Bohr mag/cell

     iteration # 81     ecut=    70.00 Ry     beta= 0.30
     Davidson diagonalization with overlap
     ethr =  1.27E-08,  avg # of iterations =  2.0

     negative rho (up, down):  6.095E-04 2.078E-02

     total cpu time spent up to now is     7404.9 secs

     total energy              =    -860.04890120 Ry
     Harris-Foulkes estimate   =    -860.04890622 Ry
     estimated scf accuracy    <       0.00001911 Ry

     total magnetization       =     2.01 Bohr mag/cell
     absolute magnetization    =     2.87 Bohr mag/cell

     iteration # 82     ecut=    70.00 Ry     beta= 0.30
     Davidson diagonalization with overlap
     ethr =  8.93E-09,  avg # of iterations =  2.0

     negative rho (up, down):  6.092E-04 2.324E-02

     total cpu time spent up to now is     7488.8 secs

     total energy              =    -860.04889106 Ry
     Harris-Foulkes estimate   =    -860.04890384 Ry
     estimated scf accuracy    <       0.00003073 Ry

     total magnetization       =     2.01 Bohr mag/cell
     absolute magnetization    =     2.87 Bohr mag/cell

     iteration # 83     ecut=    70.00 Ry     beta= 0.30
     Davidson diagonalization with overlap
     ethr =  8.93E-09,  avg # of iterations =  2.0

     negative rho (up, down):  6.088E-04 1.954E-02

     total cpu time spent up to now is     7577.2 secs

     total energy              =    -860.04890221 Ry
     Harris-Foulkes estimate   =    -860.04889948 Ry
     estimated scf accuracy    <       0.00003856 Ry

     total magnetization       =     2.01 Bohr mag/cell
     absolute magnetization    =     2.88 Bohr mag/cell

     iteration # 84     ecut=    70.00 Ry     beta= 0.30
     Davidson diagonalization with overlap
     ethr =  8.93E-09,  avg # of iterations =  1.0

     negative rho (up, down):  6.088E-04 1.782E-02

     total cpu time spent up to now is     7654.8 secs

     total energy              =    -860.04890220 Ry
     Harris-Foulkes estimate   =    -860.04890237 Ry
     estimated scf accuracy    <       0.00005548 Ry

     total magnetization       =     2.01 Bohr mag/cell
     absolute magnetization    =     2.88 Bohr mag/cell

     iteration # 85     ecut=    70.00 Ry     beta= 0.30
     Davidson diagonalization with overlap
     ethr =  8.93E-09,  avg # of iterations =  2.0

     negative rho (up, down):  6.085E-04 1.656E-02

     total cpu time spent up to now is     7739.4 secs

     total energy              =    -860.04890099 Ry
     Harris-Foulkes estimate   =    -860.04890462 Ry
     estimated scf accuracy    <       0.00005571 Ry

     total magnetization       =     2.01 Bohr mag/cell
     absolute magnetization    =     2.88 Bohr mag/cell

     iteration # 86     ecut=    70.00 Ry     beta= 0.30
     Davidson diagonalization with overlap
     ethr =  8.93E-09,  avg # of iterations =  2.0

     negative rho (up, down):  6.084E-04 1.767E-02

     total cpu time spent up to now is     7824.8 secs

     total energy              =    -860.04889601 Ry
     Harris-Foulkes estimate   =    -860.04890400 Ry
     estimated scf accuracy    <       0.00003474 Ry

     total magnetization       =     2.01 Bohr mag/cell
     absolute magnetization    =     2.88 Bohr mag/cell

     iteration # 87     ecut=    70.00 Ry     beta= 0.30
     Davidson diagonalization with overlap
     ethr =  8.93E-09,  avg # of iterations =  2.0

     negative rho (up, down):  6.086E-04 1.602E-02

     total cpu time spent up to now is     7913.1 secs

     total energy              =    -860.04889684 Ry
     Harris-Foulkes estimate   =    -860.04890063 Ry
     estimated scf accuracy    <       0.00010147 Ry

     total magnetization       =     2.01 Bohr mag/cell
     absolute magnetization    =     2.89 Bohr mag/cell

     iteration # 88     ecut=    70.00 Ry     beta= 0.30
     Davidson diagonalization with overlap
     ethr =  8.93E-09,  avg # of iterations =  2.0

     negative rho (up, down):  6.093E-04 1.754E-02

     total cpu time spent up to now is     7999.7 secs

     total energy              =    -860.04889939 Ry
     Harris-Foulkes estimate   =    -860.04890079 Ry
     estimated scf accuracy    <       0.00010357 Ry

     total magnetization       =     2.01 Bohr mag/cell
     absolute magnetization    =     2.89 Bohr mag/cell

     iteration # 89     ecut=    70.00 Ry     beta= 0.30
     Davidson diagonalization with overlap
     ethr =  8.93E-09,  avg # of iterations =  2.5

     negative rho (up, down):  6.120E-04 2.066E-02

     total cpu time spent up to now is     8088.5 secs

     total energy              =    -860.04890665 Ry
     Harris-Foulkes estimate   =    -860.04890425 Ry
     estimated scf accuracy    <       0.00012866 Ry

     total magnetization       =     2.01 Bohr mag/cell
     absolute magnetization    =     2.88 Bohr mag/cell

     iteration # 90     ecut=    70.00 Ry     beta= 0.30
     Davidson diagonalization with overlap
     ethr =  8.93E-09,  avg # of iterations =  2.5

     negative rho (up, down):  6.157E-04 2.248E-02

     total cpu time spent up to now is     8177.7 secs

     total energy              =    -860.04879195 Ry
     Harris-Foulkes estimate   =    -860.04891213 Ry
     estimated scf accuracy    <       0.00015242 Ry

     total magnetization       =     2.00 Bohr mag/cell
     absolute magnetization    =     2.86 Bohr mag/cell

     iteration # 91     ecut=    70.00 Ry     beta= 0.30
     Davidson diagonalization with overlap
     ethr =  8.93E-09,  avg # of iterations =  4.0

     negative rho (up, down):  6.418E-04 3.734E-02

     total cpu time spent up to now is     8298.4 secs

     total energy              =    -860.04872843 Ry
     Harris-Foulkes estimate   =    -860.04887443 Ry
     estimated scf accuracy    <       0.00004219 Ry

     total magnetization       =     2.06 Bohr mag/cell
     absolute magnetization    =     2.93 Bohr mag/cell

     iteration # 92     ecut=    70.00 Ry     beta= 0.30
     Davidson diagonalization with overlap
     ethr =  8.93E-09,  avg # of iterations =  4.0

     negative rho (up, down):  6.078E-04 1.463E-02

     total cpu time spent up to now is     8421.9 secs

     total energy              =    -860.04876383 Ry
     Harris-Foulkes estimate   =    -860.04883697 Ry
     estimated scf accuracy    <       0.00090388 Ry

     total magnetization       =     2.15 Bohr mag/cell
     absolute magnetization    =     2.96 Bohr mag/cell

     iteration # 93     ecut=    70.00 Ry     beta= 0.30
     Davidson diagonalization with overlap
     ethr =  8.93E-09,  avg # of iterations =  4.0

     negative rho (up, down):  6.077E-04 1.430E-02

     total cpu time spent up to now is     8542.6 secs

     total energy              =    -860.04887629 Ry
     Harris-Foulkes estimate   =    -860.04887788 Ry
     estimated scf accuracy    <       0.00003439 Ry

     total magnetization       =     2.05 Bohr mag/cell
     absolute magnetization    =     2.93 Bohr mag/cell

     iteration # 94     ecut=    70.00 Ry     beta= 0.30
     Davidson diagonalization with overlap
     ethr =  8.93E-09,  avg # of iterations =  1.5

     negative rho (up, down):  6.070E-04 1.349E-02

     total cpu time spent up to now is     8620.3 secs

     total energy              =    -860.04887690 Ry
     Harris-Foulkes estimate   =    -860.04887673 Ry
     estimated scf accuracy    <       0.00002023 Ry

     total magnetization       =     2.05 Bohr mag/cell
     absolute magnetization    =     2.94 Bohr mag/cell

     iteration # 95     ecut=    70.00 Ry     beta= 0.30
     Davidson diagonalization with overlap
     ethr =  8.93E-09,  avg # of iterations =  2.0

     negative rho (up, down):  6.077E-04 1.422E-02

     total cpu time spent up to now is     8700.8 secs

     total energy              =    -860.04887249 Ry
     Harris-Foulkes estimate   =    -860.04887839 Ry
     estimated scf accuracy    <       0.00004828 Ry

     total magnetization       =     2.03 Bohr mag/cell
     absolute magnetization    =     2.94 Bohr mag/cell

     iteration # 96     ecut=    70.00 Ry     beta= 0.30
     Davidson diagonalization with overlap
     ethr =  8.93E-09,  avg # of iterations =  2.5

     negative rho (up, down):  6.075E-04 1.372E-02

     total cpu time spent up to now is     8784.0 secs

     total energy              =    -860.04887640 Ry
     Harris-Foulkes estimate   =    -860.04887600 Ry
     estimated scf accuracy    <       0.00000291 Ry

     total magnetization       =     2.05 Bohr mag/cell
     absolute magnetization    =     2.94 Bohr mag/cell

     iteration # 97     ecut=    70.00 Ry     beta= 0.30
     Davidson diagonalization with overlap
     ethr =  1.36E-09,  avg # of iterations =  2.0

     negative rho (up, down):  6.075E-04 1.375E-02

     total cpu time spent up to now is     8865.4 secs

     total energy              =    -860.04887559 Ry
     Harris-Foulkes estimate   =    -860.04887661 Ry
     estimated scf accuracy    <       0.00000250 Ry

     total magnetization       =     2.05 Bohr mag/cell
     absolute magnetization    =     2.94 Bohr mag/cell

     iteration # 98     ecut=    70.00 Ry     beta= 0.30
     Davidson diagonalization with overlap
     ethr =  1.17E-09,  avg # of iterations =  2.5

     negative rho (up, down):  6.072E-04 1.368E-02

     total cpu time spent up to now is     8954.7 secs

     total energy              =    -860.04887501 Ry
     Harris-Foulkes estimate   =    -860.04887619 Ry
     estimated scf accuracy    <       0.00000235 Ry

     total magnetization       =     2.05 Bohr mag/cell
     absolute magnetization    =     2.94 Bohr mag/cell

     iteration # 99     ecut=    70.00 Ry     beta= 0.30
     Davidson diagonalization with overlap
     ethr =  1.10E-09,  avg # of iterations =  2.0

     negative rho (up, down):  6.070E-04 1.309E-02

     Magnetic moment per site:
     atom:    1    charge:    0.2113    magn:    0.0001    constr:    0.0000
     atom:    2    charge:    0.2132    magn:    0.0005    constr:    0.0000
     atom:    3    charge:    1.7165    magn:   -0.0098    constr:    0.0000
     atom:    4    charge:    1.7156    magn:    0.0136    constr:    0.0000
     atom:    5    charge:    1.7174    magn:   -0.0062    constr:    0.0000
     atom:    6    charge:    1.7142    magn:    0.0047    constr:    0.0000
     atom:    7    charge:    1.7176    magn:   -0.0067    constr:    0.0000
     atom:    8    charge:    1.7151    magn:    0.0170    constr:    0.0000
     atom:    9    charge:    1.7170    magn:   -0.0106    constr:    0.0000
     atom:   10    charge:    1.7149    magn:    0.0549    constr:    0.0000
     atom:   11    charge:    1.7171    magn:   -0.0144    constr:    0.0000
     atom:   12    charge:    1.7165    magn:    0.0434    constr:    0.0000
     atom:   13    charge:    1.7171    magn:   -0.0144    constr:    0.0000
     atom:   14    charge:    1.7157    magn:    0.0425    constr:    0.0000
     atom:   15    charge:    1.7136    magn:   -0.0110    constr:    0.0000
     atom:   16    charge:    1.7121    magn:    0.0447    constr:    0.0000
     atom:   17    charge:    1.7222    magn:   -0.0075    constr:    0.0000
     atom:   18    charge:    1.7121    magn:    0.0431    constr:    0.0000
     atom:   19    charge:    1.7134    magn:   -0.0102    constr:    0.0000
     atom:   20    charge:    1.7167    magn:    0.0337    constr:    0.0000
     atom:   21    charge:    1.7173    magn:   -0.0148    constr:    0.0000
     atom:   22    charge:    1.7149    magn:    0.0549    constr:    0.0000
     atom:   23    charge:    1.7170    magn:   -0.0106    constr:    0.0000
     atom:   24    charge:    1.7155    magn:    0.0149    constr:    0.0000
     atom:   25    charge:    1.7136    magn:   -0.0107    constr:    0.0000
     atom:   26    charge:    1.7117    magn:    0.0534    constr:    0.0000
     atom:   27    charge:    1.8530    magn:   -0.0148    constr:    0.0000
     atom:   28    charge:   11.1488    magn:    0.4986    constr:    0.0000
     atom:   29    charge:    1.8516    magn:   -0.0163    constr:    0.0000
     atom:   30    charge:    1.7121    magn:    0.0431    constr:    0.0000
     atom:   31    charge:    1.7134    magn:   -0.0102    constr:    0.0000
     atom:   32    charge:    1.7151    magn:    0.0170    constr:    0.0000
     atom:   33    charge:    1.7176    magn:   -0.0067    constr:    0.0000
     atom:   34    charge:    1.7141    magn:    0.0112    constr:    0.0000
     atom:   35    charge:    1.7174    magn:   -0.0064    constr:    0.0000
     atom:   36    charge:    1.7142    magn:    0.0045    constr:    0.0000
     atom:   37    charge:    1.7230    magn:   -0.0091    constr:    0.0000
     atom:   38    charge:    1.7117    magn:    0.0534    constr:    0.0000
     atom:   39    charge:    1.8530    magn:   -0.0148    constr:    0.0000
     atom:   40    charge:    1.7121    magn:    0.0447    constr:    0.0000
     atom:   41    charge:    1.7222    magn:   -0.0075    constr:    0.0000
     atom:   42    charge:    1.7142    magn:    0.0047    constr:    0.0000
     atom:   43    charge:    1.7174    magn:   -0.0062    constr:    0.0000
     atom:   44    charge:    1.7143    magn:    0.0092    constr:    0.0000
     atom:   45    charge:    1.7231    magn:   -0.0011    constr:    0.0000
     atom:   46    charge:    1.7141    magn:    0.0112    constr:    0.0000
     atom:   47    charge:    1.7174    magn:   -0.0064    constr:    0.0000
     atom:   48    charge:    1.7155    magn:    0.0149    constr:    0.0000
     atom:   49    charge:    1.7136    magn:   -0.0107    constr:    0.0000
     atom:   50    charge:    1.7157    magn:    0.0425    constr:    0.0000
     atom:   51    charge:    1.7136    magn:   -0.0110    constr:    0.0000
     atom:   52    charge:    1.7156    magn:    0.0136    constr:    0.0000

     total cpu time spent up to now is     9042.8 secs

     End of self-consistent calculation

 ------ SPIN UP ------------


          k = 0.0000 0.0000 0.0000 ( 87777 PWs)   bands (ev):

   -88.9383 -55.8326 -55.7482 -54.1937 -19.8550 -19.0310 -19.0085 -18.9273
   -18.9101 -18.9017 -18.5819 -17.1632 -17.1458 -17.1457 -17.0834 -17.0784
   -16.7720 -16.3082 -16.3031 -16.2003 -16.1599 -16.1594 -15.4841 -14.2299
   -14.2011 -14.1256 -14.0706 -14.0659 -13.4229 -13.1426 -13.1386 -13.1119
   -12.8417 -12.8412 -12.4246 -11.9293 -11.9264 -11.7318 -11.4911 -11.4897
   -10.6241  -9.8089  -9.8042  -9.5170  -9.3928  -9.3923  -9.3031  -9.2737
    -9.2723  -9.2610  -8.8080  -8.8079  -8.2866  -8.2810  -8.1793  -8.0316
    -7.9111  -7.5238  -7.5153  -7.3680  -7.3395  -7.2504  -7.0766  -7.0766
    -6.9503  -6.8990  -6.8960  -6.7946  -6.7450  -6.6438  -6.6311  -6.6094
    -6.6004  -6.5943  -6.5532  -6.0894  -5.7649  -5.7435  -5.7376  -5.6751
    -5.4704  -5.4657  -5.3821  -5.0626  -4.9570  -4.8175  -4.7898  -4.7651
    -4.5609  -4.5539  -4.4602  -4.3289  -4.3106  -3.9460  -3.9356  -3.8567
    -3.7595  -3.7569  -3.2095  -2.9277  -2.9102  -1.9489  -1.8776  -1.8734
    -1.4491  -1.3365  -1.2246  -0.9372   0.8441   0.8903   0.8990   1.3919
     1.4159   1.5253   2.2559   2.2629   2.5374   2.6926   2.6983   2.7839
     3.2875   3.2984   3.4506   3.6636   3.7360   3.7417   3.7533   3.7683

     occupation numbers 
     1.0000   1.0000   1.0000   1.0000   1.0000   1.0000   1.0000   1.0000
     1.0000   1.0000   1.0000   1.0000   1.0000   1.0000   1.0000   1.0000
     1.0000   1.0000   1.0000   1.0000   1.0000   1.0000   1.0000   1.0000
     1.0000   1.0000   1.0000   1.0000   1.0000   1.0000   1.0000   1.0000
     1.0000   1.0000   1.0000   1.0000   1.0000   1.0000   1.0000   1.0000
     1.0000   1.0000   1.0000   1.0000   1.0000   1.0000   1.0000   1.0000
     1.0000   1.0000   1.0000   1.0000   1.0000   1.0000   1.0000   1.0000
     1.0000   1.0000   1.0000   1.0000   1.0000   1.0000   1.0000   1.0000
     1.0000   1.0000   1.0000   1.0000   1.0000   1.0000   1.0000   1.0000
     1.0000   1.0000   1.0000   1.0000   1.0000   1.0000   1.0000   1.0000
     1.0000   1.0000   1.0000   1.0000   1.0000   1.0000   1.0000   1.0000
     1.0000   1.0000   1.0000   1.0000   1.0000   1.0000   1.0000   1.0000
     1.0000   1.0000   1.0000   1.0000   1.0000   1.0000   1.0000   1.0000
     1.0000   1.0000   1.0000   1.0253   0.0000   0.0000   0.0000   0.0000
     0.0000   0.0000   0.0000   0.0000   0.0000   0.0000   0.0000   0.0000
     0.0000   0.0000   0.0000   0.0000   0.0000   0.0000   0.0000   0.0000

 ------ SPIN DOWN ----------


          k = 0.0000 0.0000 0.0000 ( 87777 PWs)   bands (ev):

   -88.1424 -55.1593 -55.1343 -53.1918 -19.8171 -18.9859 -18.9669 -18.8925
   -18.8859 -18.8779 -18.5271 -17.1269 -17.1193 -17.1151 -17.0339 -17.0311
   -16.7432 -16.2657 -16.2639 -16.1685 -16.1210 -16.1185 -15.4586 -14.1596
   -14.1422 -14.0719 -14.0606 -14.0549 -13.4220 -13.1175 -13.1157 -13.0832
   -12.8235 -12.8217 -12.3950 -11.8941 -11.8900 -11.7092 -11.4696 -11.4684
   -10.5972  -9.7538  -9.7508  -9.4884  -9.3637  -9.3624  -9.2875  -9.2521
    -9.2515  -9.2442  -8.7947  -8.7946  -8.2475  -8.2421  -8.1548  -7.9424
    -7.8952  -7.5104  -7.5012  -7.3050  -7.2312  -7.0809  -7.0248  -7.0237
    -6.8705  -6.8416  -6.8171  -6.7809  -6.6728  -6.6272  -6.6159  -6.5995
    -6.5883  -6.5826  -6.5356  -6.0248  -5.6898  -5.6809  -5.5111  -5.4488
    -5.4267  -5.4228  -5.2433  -5.0493  -4.9483  -4.7481  -4.7049  -4.6874
    -4.4769  -4.4691  -4.3892  -4.2037  -4.2019  -3.8254  -3.8187  -3.7697
    -3.7446  -3.7423  -3.1550  -2.7001  -2.6910  -1.8511  -1.8474  -1.8091
    -0.9480  -0.9188  -0.8601  -0.8153   0.9337   0.9425   0.9806   1.5485
     1.5503   1.6420   2.4217   2.4403   2.5552   2.8154   2.8235   2.8550
     3.4351   3.4452   3.5469   3.6798   3.7466   3.7505   3.7657   3.7726

     occupation numbers 
     1.0000   1.0000   1.0000   1.0000   1.0000   1.0000   1.0000   1.0000
     1.0000   1.0000   1.0000   1.0000   1.0000   1.0000   1.0000   1.0000
     1.0000   1.0000   1.0000   1.0000   1.0000   1.0000   1.0000   1.0000
     1.0000   1.0000   1.0000   1.0000   1.0000   1.0000   1.0000   1.0000
     1.0000   1.0000   1.0000   1.0000   1.0000   1.0000   1.0000   1.0000
     1.0000   1.0000   1.0000   1.0000   1.0000   1.0000   1.0000   1.0000
     1.0000   1.0000   1.0000   1.0000   1.0000   1.0000   1.0000   1.0000
     1.0000   1.0000   1.0000   1.0000   1.0000   1.0000   1.0000   1.0000
     1.0000   1.0000   1.0000   1.0000   1.0000   1.0000   1.0000   1.0000
     1.0000   1.0000   1.0000   1.0000   1.0000   1.0000   1.0000   1.0000
     1.0000   1.0000   1.0000   1.0000   1.0000   1.0000   1.0000   1.0000
     1.0000   1.0000   1.0000   1.0000   1.0000   1.0000   1.0000   1.0000
     1.0000   1.0000   1.0000   1.0000   1.0000   1.0000   1.0000   1.0000
     1.0015   0.9732   0.0000   0.0000   0.0000   0.0000   0.0000   0.0000
     0.0000   0.0000   0.0000   0.0000   0.0000   0.0000   0.0000   0.0000
     0.0000   0.0000   0.0000   0.0000   0.0000   0.0000   0.0000   0.0000

     the Fermi energy is    -0.9072 ev

!    total energy              =    -860.04887647 Ry
     Harris-Foulkes estimate   =    -860.04887580 Ry
     estimated scf accuracy    <       0.00000046 Ry

     The total energy is the sum of the following terms:

     one-electron contribution =   -2806.49810567 Ry
     hartree contribution      =    1447.10579127 Ry
     xc contribution           =    -259.35605671 Ry
     ewald contribution        =     758.69936854 Ry
     smearing contrib. (-TS)   =       0.00012610 Ry

     total magnetization       =     2.05 Bohr mag/cell
     absolute magnetization    =     2.94 Bohr mag/cell

     convergence has been achieved in  99 iterations

     Writing output data file distance-2.2.save/

     init_run     :     67.02s CPU     68.20s WALL (       1 calls)
     electrons    :   8800.73s CPU   8973.60s WALL (       1 calls)

     Called by init_run:
     wfcinit      :     37.17s CPU     37.38s WALL (       1 calls)
     wfcinit:atom :      0.06s CPU      0.08s WALL (       2 calls)
     wfcinit:wfcr :     36.74s CPU     36.89s WALL (       2 calls)
     potinit      :     12.37s CPU     12.78s WALL (       1 calls)
     hinit0       :      9.26s CPU      9.29s WALL (       1 calls)

     Called by electrons:
     c_bands      :   5596.50s CPU   5628.46s WALL (      99 calls)
     sum_band     :   1848.82s CPU   1903.90s WALL (      99 calls)
     v_of_rho     :    688.29s CPU    724.95s WALL (     100 calls)
     v_h          :      7.45s CPU      7.63s WALL (     100 calls)
     v_xc         :    680.83s CPU    717.32s WALL (     100 calls)
     newd         :    622.68s CPU    671.63s WALL (     100 calls)
     mix_rho      :     36.95s CPU     37.47s WALL (      99 calls)

     Called by c_bands:
     init_us_2    :     18.54s CPU     18.60s WALL (     398 calls)
     cegterg      :   5551.83s CPU   5583.51s WALL (     198 calls)

     Called by sum_band:
     sum_band:bec :      0.17s CPU      0.17s WALL (     198 calls)
     addusdens    :   1155.83s CPU   1206.91s WALL (      99 calls)

     Called by *egterg:
     h_psi        :   2903.78s CPU   2924.74s WALL (     733 calls)
     s_psi        :    922.96s CPU    923.58s WALL (     733 calls)
     g_psi        :      3.68s CPU      3.69s WALL (     533 calls)
     cdiaghg      :     54.67s CPU     54.70s WALL (     731 calls)
     cegterg:over :    709.52s CPU    709.92s WALL (     533 calls)
     cegterg:upda :    426.87s CPU    429.48s WALL (     533 calls)
     cegterg:last :    288.18s CPU    288.30s WALL (     198 calls)

     Called by h_psi:
     h_psi:pot    :   2900.16s CPU   2917.18s WALL (     733 calls)
     h_psi:calbec :    926.24s CPU    926.75s WALL (     733 calls)
     vloc_psi     :   1050.59s CPU   1066.67s WALL (     733 calls)
     add_vuspsi   :    923.31s CPU    923.75s WALL (     733 calls)

     General routines
     calbec       :   1321.55s CPU   1322.26s WALL (     931 calls)
     fft          :    390.09s CPU    403.74s WALL (    7494 calls)
     ffts         :      7.16s CPU      7.35s WALL (     398 calls)
     fftw         :   1122.42s CPU   1139.49s WALL (  144436 calls)
     interpolate  :     16.43s CPU     16.87s WALL (     200 calls)

     Parallel routines
     fft_scatt_xy :    270.53s CPU    273.79s WALL (  152328 calls)
     fft_scatt_yz :    506.75s CPU    527.70s WALL (  152328 calls)

     PWSCF        :      2h27m CPU      2h30m WALL


   This run was terminated on:  13:11: 4  14Nov2022            

=------------------------------------------------------------------------------=
   JOB DONE.
=------------------------------------------------------------------------------=
