
     Program PWSCF v.6.4.1 starts on 13Nov2022 at 10:55: 8 

     This program is part of the open-source Quantum ESPRESSO suite
     for quantum simulation of materials; please cite
         "P. Giannozzi et al., J. Phys.:Condens. Matter 21 395502 (2009);
         "P. Giannozzi et al., J. Phys.:Condens. Matter 29 465901 (2017);
          URL http://www.quantum-espresso.org", 
     in publications or presentations arising from this work. More details at
     http://www.quantum-espresso.org/quote

     Parallel version (MPI), running on     6 processors

     MPI processes distributed on     1 nodes
     R & G space division:  proc/nbgrp/npool/nimage =       6
     Reading input from distance-4.0.in

     Current dimensions of program PWSCF are:
     Max number of different atomic species (ntypx) = 10
     Max number of k-points (npk) =  40000
     Max angular momentum in pseudopotentials (lmaxx) =  3

     IMPORTANT: XC functional enforced from input :
     Exchange-correlation      = RVV10 ( 1  4 13  4 3 0)
     Any further DFT definition will be discarded
     Please, verify this is what you really want

               file H.pbe-rrkjus.UPF: wavefunction(s)  1S renormalized

     Subspace diagonalization in iterative solution of the eigenvalue problem:
     a serial algorithm will be used


     Parallelization info
     --------------------
     sticks:   dense  smooth     PW     G-vecs:    dense   smooth      PW
     Min        3051    1746    432               270999   117096   14629
     Max        3053    1747    437               271001   117099   14630
     Sum       18313   10477   2611              1626001   702581   87777



     bravais-lattice index     =            4
     lattice parameter (alat)  =      23.2937  a.u.
     unit-cell volume          =    8879.8548 (a.u.)^3
     number of atoms/cell      =           52
     number of atomic types    =            3
     number of electrons       =       214.00
     number of Kohn-Sham states=          128
     kinetic-energy cutoff     =      70.0000  Ry
     charge density cutoff     =     490.0000  Ry
     convergence threshold     =      1.0E-06
     mixing beta               =       0.3000
     number of iterations used =            4  plain     mixing
     Exchange-correlation      = RVV10 ( 1  4 13  4 3 0)

     celldm(1)=  23.293684  celldm(2)=   0.000000  celldm(3)=   0.811261
     celldm(4)=   0.000000  celldm(5)=   0.000000  celldm(6)=   0.000000

     crystal axes: (cart. coord. in units of alat)
               a(1) = (   1.000000   0.000000   0.000000 )  
               a(2) = (  -0.500000   0.866025   0.000000 )  
               a(3) = (   0.000000   0.000000   0.811261 )  

     reciprocal axes: (cart. coord. in units 2 pi/alat)
               b(1) = (  1.000000  0.577350 -0.000000 )  
               b(2) = (  0.000000  1.154701  0.000000 )  
               b(3) = (  0.000000 -0.000000  1.232649 )  


     PseudoPot. # 1 for H  read from file:
     /home/cristian/Escritorio/Proyecto_Grafeno/pseudopotenciales/H.pbe-rrkjus.UPF
     MD5 check sum: 7cc9d459525c9a0585f487a71c3c9563
     Pseudo is Ultrasoft, Zval =  1.0
     Generated by new atomic code, or converted to UPF format
     Using radial grid of 1061 points,  2 beta functions with: 
                l(1) =   0
                l(2) =   0
     Q(r) pseudized with 0 coefficients 


     PseudoPot. # 2 for C  read from file:
     /home/cristian/Escritorio/Proyecto_Grafeno/pseudopotenciales/C.pbe-n-rrkjus_psl.1.0.0.UPF
     MD5 check sum: 1fdd950c42eb37d8afe3dd2f8d12311e
     Pseudo is Ultrasoft + core correction, Zval =  4.0
     Generated using "atomic" code by A. Dal Corso v.6.3MaX
     Using radial grid of 1073 points,  4 beta functions with: 
                l(1) =   0
                l(2) =   0
                l(3) =   1
                l(4) =   1
     Q(r) pseudized with 0 coefficients 


     PseudoPot. # 3 for Fe read from file:
     /home/cristian/Escritorio/Proyecto_Grafeno/pseudopotenciales/Fe.pbe-spn-rrkjus_psl.1.0.0.UPF
     MD5 check sum: 72ea77fed8e64ab3a2ccf2804dfc1862
     Pseudo is Ultrasoft + core correction, Zval = 16.0
     Generated using "atomic" code by A. Dal Corso v.6.3
     Using radial grid of 1191 points,  6 beta functions with: 
                l(1) =   0
                l(2) =   0
                l(3) =   1
                l(4) =   1
                l(5) =   2
                l(6) =   2
     Q(r) pseudized with 0 coefficients 


     vdW kernel table read from file rVV10_kernel_table
     MD5 check sum: b8e2538accc0c0b3206b45ba4daaba6c

     atomic species   valence    mass     pseudopotential
        H              1.00     1.00794     H ( 1.00)
        C              4.00    12.01070     C ( 1.00)
        Fe            16.00    55.84500     Fe( 1.00)

     Starting magnetic structure 
     atomic species   magnetization
        H            0.500
        C            0.300
        Fe           0.800

      2 Sym. Ops. (no inversion) found


                                    s                        frac. trans.

      isym =  1     identity                                     

 cryst.   s( 1) = (     1          0          0      )
                  (     0          1          0      )
                  (     0          0          1      )

 cart.    s( 1) = (  1.0000000  0.0000000  0.0000000 )
                  (  0.0000000  1.0000000  0.0000000 )
                  (  0.0000000  0.0000000  1.0000000 )


      isym =  2     inv. 180 deg rotation - cryst. axis [1,1,0]  

 cryst.   s( 2) = (     0         -1          0      )
                  (    -1          0          0      )
                  (     0          0          1      )

 cart.    s( 2) = (  0.5000000 -0.8660254  0.0000000 )
                  ( -0.8660254 -0.5000000  0.0000000 )
                  (  0.0000000  0.0000000  1.0000000 )


     point group C_s (m)    
     there are  2 classes
     the character table:

       E     s    
A'     1.00  1.00
A''    1.00 -1.00

     the symmetry operations in each class and the name of the first element:

     E        1
          identity                                               
     s        2
          inv. 180 deg rotation - cryst. axis [1,1,0]            

   Cartesian axes

     site n.     atom                  positions (alat units)
         1           H   tau(   1) = (   0.3000000   0.4041452   0.3245045  )
         2           H   tau(   2) = (   0.3000000   0.4041452   0.3855171  )
         3           C   tau(   3) = (   0.0000000   0.0000000   0.0000000  )
         4           C   tau(   4) = (   0.0000000   0.1154701   0.0000000  )
         5           C   tau(   5) = (  -0.1000000   0.1732051   0.0000000  )
         6           C   tau(   6) = (  -0.1000000   0.2886751   0.0000000  )
         7           C   tau(   7) = (  -0.2000000   0.3464102   0.0000000  )
         8           C   tau(   8) = (  -0.2000000   0.4618802   0.0000000  )
         9           C   tau(   9) = (  -0.3000000   0.5196152   0.0000000  )
        10           C   tau(  10) = (  -0.3000000   0.6350853   0.0000000  )
        11           C   tau(  11) = (  -0.4000000   0.6928203   0.0000000  )
        12           C   tau(  12) = (  -0.4000000   0.8082904   0.0000000  )
        13           C   tau(  13) = (   0.2000000   0.0000000   0.0000000  )
        14           C   tau(  14) = (   0.2000000   0.1154701   0.0000000  )
        15           C   tau(  15) = (   0.1000000   0.1732051   0.0000000  )
        16           C   tau(  16) = (   0.1000000   0.2886751   0.0000000  )
        17           C   tau(  17) = (   0.0000000   0.3464102   0.0000000  )
        18           C   tau(  18) = (   0.0000000   0.4618802   0.0000000  )
        19           C   tau(  19) = (  -0.1000000   0.5196152   0.0000000  )
        20           C   tau(  20) = (  -0.1000000   0.6350853   0.0000000  )
        21           C   tau(  21) = (  -0.2000000   0.6928203   0.0000000  )
        22           C   tau(  22) = (  -0.2000000   0.8082904   0.0000000  )
        23           C   tau(  23) = (   0.4000000   0.0000000   0.0000000  )
        24           C   tau(  24) = (   0.4000000   0.1154701   0.0000000  )
        25           C   tau(  25) = (   0.3000000   0.1732051   0.0000000  )
        26           C   tau(  26) = (   0.3000000   0.2886751   0.0000000  )
        27           C   tau(  27) = (   0.2000000   0.3464102   0.0000000  )
        28           Fe  tau(  28) = (   0.2000000   0.4618802   0.0000000  )
        29           C   tau(  29) = (   0.1000000   0.5196152   0.0000000  )
        30           C   tau(  30) = (   0.1000000   0.6350853   0.0000000  )
        31           C   tau(  31) = (   0.0000000   0.6928203   0.0000000  )
        32           C   tau(  32) = (   0.0000000   0.8082904   0.0000000  )
        33           C   tau(  33) = (   0.6000000   0.0000000   0.0000000  )
        34           C   tau(  34) = (   0.6000000   0.1154701   0.0000000  )
        35           C   tau(  35) = (   0.5000000   0.1732051   0.0000000  )
        36           C   tau(  36) = (   0.5000000   0.2886751   0.0000000  )
        37           C   tau(  37) = (   0.4000000   0.3464102   0.0000000  )
        38           C   tau(  38) = (   0.4000000   0.4618802   0.0000000  )
        39           C   tau(  39) = (   0.3000000   0.5196152   0.0000000  )
        40           C   tau(  40) = (   0.3000000   0.6350853   0.0000000  )
        41           C   tau(  41) = (   0.2000000   0.6928203   0.0000000  )
        42           C   tau(  42) = (   0.2000000   0.8082904   0.0000000  )
        43           C   tau(  43) = (   0.8000000   0.0000000   0.0000000  )
        44           C   tau(  44) = (   0.8000000   0.1154701   0.0000000  )
        45           C   tau(  45) = (   0.7000000   0.1732051   0.0000000  )
        46           C   tau(  46) = (   0.7000000   0.2886751   0.0000000  )
        47           C   tau(  47) = (   0.6000000   0.3464102   0.0000000  )
        48           C   tau(  48) = (   0.6000000   0.4618802   0.0000000  )
        49           C   tau(  49) = (   0.5000000   0.5196152   0.0000000  )
        50           C   tau(  50) = (   0.5000000   0.6350853   0.0000000  )
        51           C   tau(  51) = (   0.4000000   0.6928203   0.0000000  )
        52           C   tau(  52) = (   0.4000000   0.8082904   0.0000000  )

   Crystallographic axes

     site n.     atom                  positions (cryst. coord.)
         1           H   tau(   1) = (  0.5333333  0.4666667  0.4000000  )
         2           H   tau(   2) = (  0.5333333  0.4666667  0.4752072  )
         3           C   tau(   3) = (  0.0000000  0.0000000  0.0000000  )
         4           C   tau(   4) = (  0.0666667  0.1333333  0.0000000  )
         5           C   tau(   5) = (  0.0000000  0.2000000  0.0000000  )
         6           C   tau(   6) = (  0.0666667  0.3333333  0.0000000  )
         7           C   tau(   7) = (  0.0000000  0.4000000  0.0000000  )
         8           C   tau(   8) = (  0.0666667  0.5333333  0.0000000  )
         9           C   tau(   9) = (  0.0000000  0.6000000  0.0000000  )
        10           C   tau(  10) = (  0.0666667  0.7333333  0.0000000  )
        11           C   tau(  11) = (  0.0000000  0.8000000  0.0000000  )
        12           C   tau(  12) = (  0.0666667  0.9333333  0.0000000  )
        13           C   tau(  13) = (  0.2000000  0.0000000  0.0000000  )
        14           C   tau(  14) = (  0.2666667  0.1333333  0.0000000  )
        15           C   tau(  15) = (  0.2000000  0.2000000  0.0000000  )
        16           C   tau(  16) = (  0.2666667  0.3333333  0.0000000  )
        17           C   tau(  17) = (  0.2000000  0.4000000  0.0000000  )
        18           C   tau(  18) = (  0.2666667  0.5333333  0.0000000  )
        19           C   tau(  19) = (  0.2000000  0.6000000  0.0000000  )
        20           C   tau(  20) = (  0.2666667  0.7333333  0.0000000  )
        21           C   tau(  21) = (  0.2000000  0.8000000  0.0000000  )
        22           C   tau(  22) = (  0.2666667  0.9333333  0.0000000  )
        23           C   tau(  23) = (  0.4000000  0.0000000  0.0000000  )
        24           C   tau(  24) = (  0.4666667  0.1333333  0.0000000  )
        25           C   tau(  25) = (  0.4000000  0.2000000  0.0000000  )
        26           C   tau(  26) = (  0.4666667  0.3333333  0.0000000  )
        27           C   tau(  27) = (  0.4000000  0.4000000  0.0000000  )
        28           Fe  tau(  28) = (  0.4666667  0.5333333  0.0000000  )
        29           C   tau(  29) = (  0.4000000  0.6000000  0.0000000  )
        30           C   tau(  30) = (  0.4666667  0.7333333  0.0000000  )
        31           C   tau(  31) = (  0.4000000  0.8000000  0.0000000  )
        32           C   tau(  32) = (  0.4666667  0.9333333  0.0000000  )
        33           C   tau(  33) = (  0.6000000  0.0000000  0.0000000  )
        34           C   tau(  34) = (  0.6666667  0.1333333  0.0000000  )
        35           C   tau(  35) = (  0.6000000  0.2000000  0.0000000  )
        36           C   tau(  36) = (  0.6666667  0.3333333  0.0000000  )
        37           C   tau(  37) = (  0.6000000  0.4000000  0.0000000  )
        38           C   tau(  38) = (  0.6666667  0.5333333  0.0000000  )
        39           C   tau(  39) = (  0.6000000  0.6000000  0.0000000  )
        40           C   tau(  40) = (  0.6666667  0.7333333  0.0000000  )
        41           C   tau(  41) = (  0.6000000  0.8000000  0.0000000  )
        42           C   tau(  42) = (  0.6666667  0.9333333  0.0000000  )
        43           C   tau(  43) = (  0.8000000  0.0000000  0.0000000  )
        44           C   tau(  44) = (  0.8666667  0.1333333  0.0000000  )
        45           C   tau(  45) = (  0.8000000  0.2000000  0.0000000  )
        46           C   tau(  46) = (  0.8666667  0.3333333  0.0000000  )
        47           C   tau(  47) = (  0.8000000  0.4000000  0.0000000  )
        48           C   tau(  48) = (  0.8666667  0.5333333  0.0000000  )
        49           C   tau(  49) = (  0.8000000  0.6000000  0.0000000  )
        50           C   tau(  50) = (  0.8666667  0.7333333  0.0000000  )
        51           C   tau(  51) = (  0.8000000  0.8000000  0.0000000  )
        52           C   tau(  52) = (  0.8666667  0.9333333  0.0000000  )

     number of k points=     1  Marzari-Vanderbilt smearing, width (Ry)=  0.0010
                       cart. coord. in units 2pi/alat
        k(    1) = (   0.0000000   0.0000000   0.0000000), wk =   1.0000000

                       cryst. coord.
        k(    1) = (   0.0000000   0.0000000   0.0000000), wk =   1.0000000

     Dense  grid:  1626001 G-vectors     FFT dimensions: ( 180, 180, 135)

     Smooth grid:   702581 G-vectors     FFT dimensions: ( 125, 125, 108)

     Dynamical RAM for                 wfc:      28.59 MB

     Dynamical RAM for     wfc (w. buffer):      85.76 MB

     Dynamical RAM for           str. fact:      12.41 MB

     Dynamical RAM for           local pot:       0.00 MB

     Dynamical RAM for          nlocal pot:      92.46 MB

     Dynamical RAM for                qrad:      19.73 MB

     Dynamical RAM for          rho,v,vnew:      58.92 MB

     Dynamical RAM for               rhoin:      19.64 MB

     Dynamical RAM for            rho*nmix:      66.16 MB

     Dynamical RAM for           G-vectors:      16.40 MB

     Dynamical RAM for          h,s,v(r/c):      12.00 MB

     Dynamical RAM for          <psi|beta>:       0.81 MB

     Dynamical RAM for                 psi:     114.35 MB

     Dynamical RAM for                hpsi:     114.35 MB

     Dynamical RAM for                spsi:     114.35 MB

     Dynamical RAM for      wfcinit/wfcrot:      93.90 MB

     Dynamical RAM for           addusdens:     975.89 MB

     Estimated static dynamical RAM per process >     422.14 MB

     Estimated max dynamical RAM per process >       1.37 GB

     Estimated total dynamical RAM >       8.19 GB
     Generating pointlists ...
     new r_m :   0.0252 (alat units)  0.5862 (a.u.) for type    1
     new r_m :   0.0476 (alat units)  1.1095 (a.u.) for type    2
     new r_m :   0.0476 (alat units)  1.1095 (a.u.) for type    3

     Check: negative core charge=   -0.000002

     Initial potential from superposition of free atoms

     starting charge  213.80512, renormalised to  214.00000

     negative rho (up, down):  6.475E-05 9.348E-03


---------------------------------------------------------------------------------
Carrying out rVV10 run using the following parameters:
Nqs =      20    Nr_points =    1024   r_max =   100.000
b_value =  6.30000    beta =  0.00901
     q_mesh =  0.00010000  0.00030000  0.00058939  0.00100810
               0.00161396  0.00249058  0.00375900  0.00559430
               0.00824984  0.01209221  0.01765183  0.02569619
               0.03733578  0.05417739  0.07854596  0.11380545
               0.16482331  0.23864234  0.34545298  0.50000000

Gradients computed in Reciprocal space

---------------------------------------------------------------------------------


     Starting wfcs are  208 randomized atomic wfcs

     total cpu time spent up to now is       78.8 secs

     Self-consistent Calculation

     iteration #  1     ecut=    70.00 Ry     beta= 0.30
     Davidson diagonalization with overlap
     ethr =  1.00E-02,  avg # of iterations =  2.5

     negative rho (up, down):  7.641E-05 9.219E-03

     total cpu time spent up to now is      224.5 secs

     total energy              =    -858.11312951 Ry
     Harris-Foulkes estimate   =    -858.63175482 Ry
     estimated scf accuracy    <      10.04994804 Ry

     total magnetization       =     6.00 Bohr mag/cell
     absolute magnetization    =     6.66 Bohr mag/cell

     iteration #  2     ecut=    70.00 Ry     beta= 0.30
     Davidson diagonalization with overlap
     ethr =  4.70E-03,  avg # of iterations =  2.0

     negative rho (up, down):  1.038E-04 1.075E-02

     total cpu time spent up to now is      327.6 secs

     total energy              =    -858.49254624 Ry
     Harris-Foulkes estimate   =    -858.64552281 Ry
     estimated scf accuracy    <       4.88965635 Ry

     total magnetization       =     4.00 Bohr mag/cell
     absolute magnetization    =     5.65 Bohr mag/cell

     iteration #  3     ecut=    70.00 Ry     beta= 0.30
     Davidson diagonalization with overlap
     ethr =  2.28E-03,  avg # of iterations =  3.5

     negative rho (up, down):  1.907E-04 2.293E-02

     total cpu time spent up to now is      437.6 secs

     total energy              =    -858.73037879 Ry
     Harris-Foulkes estimate   =    -859.82292429 Ry
     estimated scf accuracy    <      11.12586688 Ry

     total magnetization       =     6.00 Bohr mag/cell
     absolute magnetization    =     6.16 Bohr mag/cell

     iteration #  4     ecut=    70.00 Ry     beta= 0.30
     Davidson diagonalization with overlap
     ethr =  2.28E-03,  avg # of iterations =  3.0

     negative rho (up, down):  2.381E-04 3.027E-02

     total cpu time spent up to now is      536.5 secs

     total energy              =    -859.84521042 Ry
     Harris-Foulkes estimate   =    -859.59246429 Ry
     estimated scf accuracy    <       0.72179139 Ry

     total magnetization       =     2.00 Bohr mag/cell
     absolute magnetization    =     3.48 Bohr mag/cell

     iteration #  5     ecut=    70.00 Ry     beta= 0.30
     Davidson diagonalization with overlap
     ethr =  3.37E-04,  avg # of iterations = 11.5

     negative rho (up, down):  2.821E-04 3.525E-02

     total cpu time spent up to now is      643.7 secs

     total energy              =    -859.96817090 Ry
     Harris-Foulkes estimate   =    -859.95360321 Ry
     estimated scf accuracy    <       0.60064419 Ry

     total magnetization       =     2.00 Bohr mag/cell
     absolute magnetization    =     3.01 Bohr mag/cell

     iteration #  6     ecut=    70.00 Ry     beta= 0.30
     Davidson diagonalization with overlap
     ethr =  2.81E-04,  avg # of iterations =  1.5

     negative rho (up, down):  6.928E-04 7.249E-02

     total cpu time spent up to now is      735.7 secs

     total energy              =    -860.02771337 Ry
     Harris-Foulkes estimate   =    -859.99793490 Ry
     estimated scf accuracy    <       0.10545658 Ry

     total magnetization       =     2.00 Bohr mag/cell
     absolute magnetization    =     2.88 Bohr mag/cell

     iteration #  7     ecut=    70.00 Ry     beta= 0.30
     Davidson diagonalization with overlap
     ethr =  4.93E-05,  avg # of iterations = 10.5

     negative rho (up, down):  2.755E-03 9.715E-02

     total cpu time spent up to now is      839.5 secs

     total energy              =    -860.04350752 Ry
     Harris-Foulkes estimate   =    -860.04572595 Ry
     estimated scf accuracy    <       0.07695041 Ry

     total magnetization       =     2.14 Bohr mag/cell
     absolute magnetization    =     2.80 Bohr mag/cell

     iteration #  8     ecut=    70.00 Ry     beta= 0.30
     Davidson diagonalization with overlap
     ethr =  3.60E-05,  avg # of iterations =  3.0

     negative rho (up, down):  2.711E-03 9.130E-02

     total cpu time spent up to now is      933.0 secs

     total energy              =    -860.04521010 Ry
     Harris-Foulkes estimate   =    -860.04658941 Ry
     estimated scf accuracy    <       0.05079609 Ry

     total magnetization       =     1.79 Bohr mag/cell
     absolute magnetization    =     2.74 Bohr mag/cell

     iteration #  9     ecut=    70.00 Ry     beta= 0.30
     Davidson diagonalization with overlap
     ethr =  2.37E-05,  avg # of iterations =  2.0

     negative rho (up, down):  2.402E-03 8.292E-02

     total cpu time spent up to now is     1026.0 secs

     total energy              =    -860.04564443 Ry
     Harris-Foulkes estimate   =    -860.05139940 Ry
     estimated scf accuracy    <       0.13442379 Ry

     total magnetization       =     2.00 Bohr mag/cell
     absolute magnetization    =     2.75 Bohr mag/cell

     iteration # 10     ecut=    70.00 Ry     beta= 0.30
     Davidson diagonalization with overlap
     ethr =  2.37E-05,  avg # of iterations =  1.0

     negative rho (up, down):  1.676E-03 6.847E-02

     total cpu time spent up to now is     1117.7 secs

     total energy              =    -860.05119889 Ry
     Harris-Foulkes estimate   =    -860.04975750 Ry
     estimated scf accuracy    <       0.02913296 Ry

     total magnetization       =     1.83 Bohr mag/cell
     absolute magnetization    =     2.73 Bohr mag/cell

     iteration # 11     ecut=    70.00 Ry     beta= 0.30
     Davidson diagonalization with overlap
     ethr =  1.36E-05,  avg # of iterations =  1.0

     negative rho (up, down):  1.454E-03 6.269E-02

     total cpu time spent up to now is     1209.4 secs

     total energy              =    -860.05199595 Ry
     Harris-Foulkes estimate   =    -860.05161828 Ry
     estimated scf accuracy    <       0.01858592 Ry

     total magnetization       =     1.98 Bohr mag/cell
     absolute magnetization    =     2.79 Bohr mag/cell

     iteration # 12     ecut=    70.00 Ry     beta= 0.30
     Davidson diagonalization with overlap
     ethr =  8.69E-06,  avg # of iterations =  5.0

     negative rho (up, down):  1.050E-03 4.973E-02

     total cpu time spent up to now is     1302.7 secs

     total energy              =    -860.05274619 Ry
     Harris-Foulkes estimate   =    -860.05226539 Ry
     estimated scf accuracy    <       0.01327912 Ry

     total magnetization       =     1.85 Bohr mag/cell
     absolute magnetization    =     2.77 Bohr mag/cell

     iteration # 13     ecut=    70.00 Ry     beta= 0.30
     Davidson diagonalization with overlap
     ethr =  6.21E-06,  avg # of iterations =  8.0

     negative rho (up, down):  7.951E-04 3.682E-02

     total cpu time spent up to now is     1398.9 secs

     total energy              =    -860.05316575 Ry
     Harris-Foulkes estimate   =    -860.05293992 Ry
     estimated scf accuracy    <       0.01516358 Ry

     total magnetization       =     1.86 Bohr mag/cell
     absolute magnetization    =     2.84 Bohr mag/cell

     iteration # 14     ecut=    70.00 Ry     beta= 0.30
     Davidson diagonalization with overlap
     ethr =  6.21E-06,  avg # of iterations =  2.0

     negative rho (up, down):  7.974E-04 3.749E-02

     total cpu time spent up to now is     1491.6 secs

     total energy              =    -860.05364435 Ry
     Harris-Foulkes estimate   =    -860.05355084 Ry
     estimated scf accuracy    <       0.00408878 Ry

     total magnetization       =     2.03 Bohr mag/cell
     absolute magnetization    =     2.90 Bohr mag/cell

     iteration # 15     ecut=    70.00 Ry     beta= 0.30
     Davidson diagonalization with overlap
     ethr =  1.91E-06,  avg # of iterations =  6.0

     negative rho (up, down):  7.994E-04 3.868E-02

     total cpu time spent up to now is     1589.1 secs

     total energy              =    -860.05394210 Ry
     Harris-Foulkes estimate   =    -860.05374830 Ry
     estimated scf accuracy    <       0.00153164 Ry

     total magnetization       =     2.12 Bohr mag/cell
     absolute magnetization    =     2.95 Bohr mag/cell

     iteration # 16     ecut=    70.00 Ry     beta= 0.30
     Davidson diagonalization with overlap
     ethr =  7.16E-07,  avg # of iterations =  2.0

     negative rho (up, down):  9.600E-04 5.957E-02

     total cpu time spent up to now is     1682.1 secs

     total energy              =    -860.05383078 Ry
     Harris-Foulkes estimate   =    -860.05400128 Ry
     estimated scf accuracy    <       0.00454787 Ry

     total magnetization       =     1.93 Bohr mag/cell
     absolute magnetization    =     2.95 Bohr mag/cell

     iteration # 17     ecut=    70.00 Ry     beta= 0.30
     Davidson diagonalization with overlap
     ethr =  7.16E-07,  avg # of iterations =  1.5

     negative rho (up, down):  6.934E-04 3.865E-02

     total cpu time spent up to now is     1774.7 secs

     total energy              =    -860.05463875 Ry
     Harris-Foulkes estimate   =    -860.05394313 Ry
     estimated scf accuracy    <       0.01060820 Ry

     total magnetization       =     1.83 Bohr mag/cell
     absolute magnetization    =     2.95 Bohr mag/cell

     iteration # 18     ecut=    70.00 Ry     beta= 0.30
     Davidson diagonalization with overlap
     ethr =  7.16E-07,  avg # of iterations =  3.0

     negative rho (up, down):  7.093E-04 5.326E-02

     total cpu time spent up to now is     1881.2 secs

     total energy              =    -860.05491131 Ry
     Harris-Foulkes estimate   =    -860.05501516 Ry
     estimated scf accuracy    <       0.00454345 Ry

     total magnetization       =     1.82 Bohr mag/cell
     absolute magnetization    =     3.06 Bohr mag/cell

     iteration # 19     ecut=    70.00 Ry     beta= 0.30
     Davidson diagonalization with overlap
     ethr =  7.16E-07,  avg # of iterations =  1.0

     negative rho (up, down):  7.031E-04 6.751E-02

     total cpu time spent up to now is     1972.8 secs

     total energy              =    -860.05460302 Ry
     Harris-Foulkes estimate   =    -860.05491776 Ry
     estimated scf accuracy    <       0.00595842 Ry

     total magnetization       =     1.78 Bohr mag/cell
     absolute magnetization    =     3.06 Bohr mag/cell

     iteration # 20     ecut=    70.00 Ry     beta= 0.30
     Davidson diagonalization with overlap
     ethr =  7.16E-07,  avg # of iterations =  1.5

     negative rho (up, down):  7.156E-04 7.204E-02

     total cpu time spent up to now is     2064.8 secs

     total energy              =    -860.05467310 Ry
     Harris-Foulkes estimate   =    -860.05463687 Ry
     estimated scf accuracy    <       0.00181612 Ry

     total magnetization       =     2.00 Bohr mag/cell
     absolute magnetization    =     3.03 Bohr mag/cell

     iteration # 21     ecut=    70.00 Ry     beta= 0.30
     Davidson diagonalization with overlap
     ethr =  7.16E-07,  avg # of iterations =  1.0

     negative rho (up, down):  7.028E-04 7.531E-02

     total cpu time spent up to now is     2156.2 secs

     total energy              =    -860.05471031 Ry
     Harris-Foulkes estimate   =    -860.05468121 Ry
     estimated scf accuracy    <       0.00383218 Ry

     total magnetization       =     1.85 Bohr mag/cell
     absolute magnetization    =     3.04 Bohr mag/cell

     iteration # 22     ecut=    70.00 Ry     beta= 0.30
     Davidson diagonalization with overlap
     ethr =  7.16E-07,  avg # of iterations =  1.0

     negative rho (up, down):  6.371E-04 7.423E-02

     total cpu time spent up to now is     2248.0 secs

     total energy              =    -860.05480977 Ry
     Harris-Foulkes estimate   =    -860.05471461 Ry
     estimated scf accuracy    <       0.00221589 Ry

     total magnetization       =     1.93 Bohr mag/cell
     absolute magnetization    =     3.05 Bohr mag/cell

     iteration # 23     ecut=    70.00 Ry     beta= 0.30
     Davidson diagonalization with overlap
     ethr =  7.16E-07,  avg # of iterations =  1.0

     negative rho (up, down):  6.330E-04 7.839E-02

     total cpu time spent up to now is     2339.5 secs

     total energy              =    -860.05473063 Ry
     Harris-Foulkes estimate   =    -860.05483740 Ry
     estimated scf accuracy    <       0.00224200 Ry

     total magnetization       =     2.11 Bohr mag/cell
     absolute magnetization    =     3.08 Bohr mag/cell

     iteration # 24     ecut=    70.00 Ry     beta= 0.30
     Davidson diagonalization with overlap
     ethr =  7.16E-07,  avg # of iterations =  1.0

     negative rho (up, down):  6.721E-04 7.621E-02

     total cpu time spent up to now is     2431.2 secs

     total energy              =    -860.05500061 Ry
     Harris-Foulkes estimate   =    -860.05473496 Ry
     estimated scf accuracy    <       0.00173685 Ry

     total magnetization       =     2.10 Bohr mag/cell
     absolute magnetization    =     3.06 Bohr mag/cell

     iteration # 25     ecut=    70.00 Ry     beta= 0.30
     Davidson diagonalization with overlap
     ethr =  7.16E-07,  avg # of iterations =  2.0

     negative rho (up, down):  7.067E-04 8.799E-02

     total cpu time spent up to now is     2526.2 secs

     total energy              =    -860.05458499 Ry
     Harris-Foulkes estimate   =    -860.05507374 Ry
     estimated scf accuracy    <       0.00184452 Ry

     total magnetization       =     2.05 Bohr mag/cell
     absolute magnetization    =     3.03 Bohr mag/cell

     iteration # 26     ecut=    70.00 Ry     beta= 0.30
     Davidson diagonalization with overlap
     ethr =  7.16E-07,  avg # of iterations =  2.0

     negative rho (up, down):  6.474E-04 8.225E-02

     total cpu time spent up to now is     2621.7 secs

     total energy              =    -860.05494477 Ry
     Harris-Foulkes estimate   =    -860.05466030 Ry
     estimated scf accuracy    <       0.00556850 Ry

     total magnetization       =     1.88 Bohr mag/cell
     absolute magnetization    =     3.01 Bohr mag/cell

     iteration # 27     ecut=    70.00 Ry     beta= 0.30
     Davidson diagonalization with overlap
     ethr =  7.16E-07,  avg # of iterations =  2.0

     negative rho (up, down):  7.659E-04 9.970E-02

     total cpu time spent up to now is     2719.5 secs

     total energy              =    -860.05431593 Ry
     Harris-Foulkes estimate   =    -860.05508199 Ry
     estimated scf accuracy    <       0.00985228 Ry

     total magnetization       =     1.71 Bohr mag/cell
     absolute magnetization    =     3.07 Bohr mag/cell

     iteration # 28     ecut=    70.00 Ry     beta= 0.30
     Davidson diagonalization with overlap
     ethr =  7.16E-07,  avg # of iterations =  3.0

     negative rho (up, down):  8.866E-04 1.122E-01

     total cpu time spent up to now is     2821.6 secs

     total energy              =    -860.05321430 Ry
     Harris-Foulkes estimate   =    -860.05455234 Ry
     estimated scf accuracy    <       0.01146298 Ry

     total magnetization       =     1.61 Bohr mag/cell
     absolute magnetization    =     2.95 Bohr mag/cell

     iteration # 29     ecut=    70.00 Ry     beta= 0.30
     Davidson diagonalization with overlap
     ethr =  7.16E-07,  avg # of iterations =  2.5

     negative rho (up, down):  8.177E-04 1.035E-01

     total cpu time spent up to now is     2926.7 secs

     total energy              =    -860.05317306 Ry
     Harris-Foulkes estimate   =    -860.05377528 Ry
     estimated scf accuracy    <       0.01059113 Ry

     total magnetization       =     1.85 Bohr mag/cell
     absolute magnetization    =     2.90 Bohr mag/cell

     iteration # 30     ecut=    70.00 Ry     beta= 0.30
     Davidson diagonalization with overlap
     ethr =  7.16E-07,  avg # of iterations =  2.0

     negative rho (up, down):  1.071E-03 9.436E-02

     total cpu time spent up to now is     3033.4 secs

     total energy              =    -860.05279046 Ry
     Harris-Foulkes estimate   =    -860.05388117 Ry
     estimated scf accuracy    <       0.01371582 Ry

     total magnetization       =     1.86 Bohr mag/cell
     absolute magnetization    =     2.92 Bohr mag/cell

     iteration # 31     ecut=    70.00 Ry     beta= 0.30
     Davidson diagonalization with overlap
     ethr =  7.16E-07,  avg # of iterations =  2.5

     negative rho (up, down):  1.206E-03 9.821E-02

     total cpu time spent up to now is     3138.9 secs

     total energy              =    -860.05215602 Ry
     Harris-Foulkes estimate   =    -860.05341485 Ry
     estimated scf accuracy    <       0.00663720 Ry

     total magnetization       =     1.94 Bohr mag/cell
     absolute magnetization    =     2.94 Bohr mag/cell

     iteration # 32     ecut=    70.00 Ry     beta= 0.30
     Davidson diagonalization with overlap
     ethr =  7.16E-07,  avg # of iterations =  4.0

     negative rho (up, down):  7.259E-04 6.388E-02

     total cpu time spent up to now is     3252.7 secs

     total energy              =    -860.04926937 Ry
     Harris-Foulkes estimate   =    -860.05415669 Ry
     estimated scf accuracy    <       0.11708009 Ry

     total magnetization       =     2.00 Bohr mag/cell
     absolute magnetization    =     2.99 Bohr mag/cell

     iteration # 33     ecut=    70.00 Ry     beta= 0.30
     Davidson diagonalization with overlap
     ethr =  7.16E-07,  avg # of iterations =  4.0

     negative rho (up, down):  5.933E-04 4.956E-02

     total cpu time spent up to now is     3368.6 secs

     total energy              =    -860.05395034 Ry
     Harris-Foulkes estimate   =    -860.05377118 Ry
     estimated scf accuracy    <       0.00750360 Ry

     total magnetization       =     1.96 Bohr mag/cell
     absolute magnetization    =     2.94 Bohr mag/cell

     iteration # 34     ecut=    70.00 Ry     beta= 0.30
     Davidson diagonalization with overlap
     ethr =  7.16E-07,  avg # of iterations =  3.0

     negative rho (up, down):  6.117E-04 4.948E-02

     total cpu time spent up to now is     3462.1 secs

     total energy              =    -860.05389880 Ry
     Harris-Foulkes estimate   =    -860.05389092 Ry
     estimated scf accuracy    <       0.00868130 Ry

     total magnetization       =     1.77 Bohr mag/cell
     absolute magnetization    =     3.02 Bohr mag/cell

     iteration # 35     ecut=    70.00 Ry     beta= 0.30
     Davidson diagonalization with overlap
     ethr =  7.16E-07,  avg # of iterations =  1.0

     negative rho (up, down):  6.908E-04 5.475E-02

     total cpu time spent up to now is     3553.7 secs

     total energy              =    -860.05389220 Ry
     Harris-Foulkes estimate   =    -860.05390252 Ry
     estimated scf accuracy    <       0.00882008 Ry

     total magnetization       =     1.79 Bohr mag/cell
     absolute magnetization    =     3.02 Bohr mag/cell

     iteration # 36     ecut=    70.00 Ry     beta= 0.30
     Davidson diagonalization with overlap
     ethr =  7.16E-07,  avg # of iterations =  1.0

     negative rho (up, down):  7.488E-04 5.626E-02

     total cpu time spent up to now is     3645.0 secs

     total energy              =    -860.05381686 Ry
     Harris-Foulkes estimate   =    -860.05391044 Ry
     estimated scf accuracy    <       0.00955883 Ry

     total magnetization       =     1.88 Bohr mag/cell
     absolute magnetization    =     2.98 Bohr mag/cell

     iteration # 37     ecut=    70.00 Ry     beta= 0.30
     Davidson diagonalization with overlap
     ethr =  7.16E-07,  avg # of iterations =  1.5

     negative rho (up, down):  9.984E-04 9.627E-02

     total cpu time spent up to now is     3737.2 secs

     total energy              =    -860.05299230 Ry
     Harris-Foulkes estimate   =    -860.05382245 Ry
     estimated scf accuracy    <       0.01214990 Ry

     total magnetization       =     1.82 Bohr mag/cell
     absolute magnetization    =     2.98 Bohr mag/cell

     iteration # 38     ecut=    70.00 Ry     beta= 0.30
     Davidson diagonalization with overlap
     ethr =  7.16E-07,  avg # of iterations =  5.0

     negative rho (up, down):  7.996E-04 8.247E-02

     total cpu time spent up to now is     3865.5 secs

     total energy              =    -860.05316976 Ry
     Harris-Foulkes estimate   =    -860.05503080 Ry
     estimated scf accuracy    <       0.09239582 Ry

     total magnetization       =     1.58 Bohr mag/cell
     absolute magnetization    =     2.20 Bohr mag/cell

     iteration # 39     ecut=    70.00 Ry     beta= 0.30
     Davidson diagonalization with overlap
     ethr =  7.16E-07,  avg # of iterations =  3.0

     negative rho (up, down):  6.699E-04 6.187E-02

     total cpu time spent up to now is     3968.5 secs

     total energy              =    -860.05325844 Ry
     Harris-Foulkes estimate   =    -860.05460617 Ry
     estimated scf accuracy    <       0.01821974 Ry

     total magnetization       =     2.09 Bohr mag/cell
     absolute magnetization    =     2.86 Bohr mag/cell

     iteration # 40     ecut=    70.00 Ry     beta= 0.30
     Davidson diagonalization with overlap
     ethr =  7.16E-07,  avg # of iterations =  3.0

     negative rho (up, down):  7.290E-04 5.812E-02

     total cpu time spent up to now is     4077.6 secs

     total energy              =    -860.05405120 Ry
     Harris-Foulkes estimate   =    -860.05425951 Ry
     estimated scf accuracy    <       0.01001367 Ry

     total magnetization       =     1.91 Bohr mag/cell
     absolute magnetization    =     3.00 Bohr mag/cell

     iteration # 41     ecut=    70.00 Ry     beta= 0.30
     Davidson diagonalization with overlap
     ethr =  7.16E-07,  avg # of iterations =  1.5

     negative rho (up, down):  8.845E-04 5.167E-02

     total cpu time spent up to now is     4169.7 secs

     total energy              =    -860.05370877 Ry
     Harris-Foulkes estimate   =    -860.05408494 Ry
     estimated scf accuracy    <       0.00818986 Ry

     total magnetization       =     1.84 Bohr mag/cell
     absolute magnetization    =     3.03 Bohr mag/cell

     iteration # 42     ecut=    70.00 Ry     beta= 0.30
     Davidson diagonalization with overlap
     ethr =  7.16E-07,  avg # of iterations =  4.5

     negative rho (up, down):  9.911E-04 4.783E-02

     total cpu time spent up to now is     4282.1 secs

     total energy              =    -860.05362090 Ry
     Harris-Foulkes estimate   =    -860.05424428 Ry
     estimated scf accuracy    <       0.01350324 Ry

     total magnetization       =     1.47 Bohr mag/cell
     absolute magnetization    =     2.92 Bohr mag/cell

     iteration # 43     ecut=    70.00 Ry     beta= 0.30
     Davidson diagonalization with overlap
     ethr =  7.16E-07,  avg # of iterations =  4.0

     negative rho (up, down):  6.107E-04 5.725E-02

     total cpu time spent up to now is     4386.3 secs

     total energy              =    -860.05056971 Ry
     Harris-Foulkes estimate   =    -860.05407193 Ry
     estimated scf accuracy    <       0.02842464 Ry

     total magnetization       =     1.72 Bohr mag/cell
     absolute magnetization    =     2.99 Bohr mag/cell

     iteration # 44     ecut=    70.00 Ry     beta= 0.30
     Davidson diagonalization with overlap
     ethr =  7.16E-07,  avg # of iterations =  5.0

     negative rho (up, down):  6.110E-04 4.758E-02

     total cpu time spent up to now is     4508.9 secs

     total energy              =    -860.05411245 Ry
     Harris-Foulkes estimate   =    -860.05409212 Ry
     estimated scf accuracy    <       0.00691596 Ry

     total magnetization       =     1.83 Bohr mag/cell
     absolute magnetization    =     3.05 Bohr mag/cell

     iteration # 45     ecut=    70.00 Ry     beta= 0.30
     Davidson diagonalization with overlap
     ethr =  7.16E-07,  avg # of iterations =  1.5

     negative rho (up, down):  6.267E-04 4.700E-02

     total cpu time spent up to now is     4600.7 secs

     total energy              =    -860.05405371 Ry
     Harris-Foulkes estimate   =    -860.05411103 Ry
     estimated scf accuracy    <       0.00486050 Ry

     total magnetization       =     1.98 Bohr mag/cell
     absolute magnetization    =     3.03 Bohr mag/cell

     iteration # 46     ecut=    70.00 Ry     beta= 0.30
     Davidson diagonalization with overlap
     ethr =  7.16E-07,  avg # of iterations =  1.0

     negative rho (up, down):  6.246E-04 4.644E-02

     total cpu time spent up to now is     4691.9 secs

     total energy              =    -860.05390741 Ry
     Harris-Foulkes estimate   =    -860.05406424 Ry
     estimated scf accuracy    <       0.00471088 Ry

     total magnetization       =     1.96 Bohr mag/cell
     absolute magnetization    =     3.04 Bohr mag/cell

     iteration # 47     ecut=    70.00 Ry     beta= 0.30
     Davidson diagonalization with overlap
     ethr =  7.16E-07,  avg # of iterations =  2.0

     negative rho (up, down):  7.901E-04 6.031E-02

     total cpu time spent up to now is     4784.8 secs

     total energy              =    -860.05376928 Ry
     Harris-Foulkes estimate   =    -860.05391578 Ry
     estimated scf accuracy    <       0.00571083 Ry

     total magnetization       =     1.88 Bohr mag/cell
     absolute magnetization    =     3.07 Bohr mag/cell

     iteration # 48     ecut=    70.00 Ry     beta= 0.30
     Davidson diagonalization with overlap
     ethr =  7.16E-07,  avg # of iterations =  3.0

     negative rho (up, down):  6.816E-04 5.819E-02

     total cpu time spent up to now is     4892.7 secs

     total energy              =    -860.05328457 Ry
     Harris-Foulkes estimate   =    -860.05436395 Ry
     estimated scf accuracy    <       0.00688273 Ry

     total magnetization       =     1.93 Bohr mag/cell
     absolute magnetization    =     3.03 Bohr mag/cell

     iteration # 49     ecut=    70.00 Ry     beta= 0.30
     Davidson diagonalization with overlap
     ethr =  7.16E-07,  avg # of iterations =  3.0

     negative rho (up, down):  5.926E-04 5.568E-02

     total cpu time spent up to now is     5000.8 secs

     total energy              =    -860.05388466 Ry
     Harris-Foulkes estimate   =    -860.05398486 Ry
     estimated scf accuracy    <       0.00031455 Ry

     total magnetization       =     2.09 Bohr mag/cell
     absolute magnetization    =     3.11 Bohr mag/cell

     iteration # 50     ecut=    70.00 Ry     beta= 0.30
     Davidson diagonalization with overlap
     ethr =  1.47E-07,  avg # of iterations =  3.0

     negative rho (up, down):  5.781E-04 4.105E-02

     total cpu time spent up to now is     5106.5 secs

     total energy              =    -860.05407108 Ry
     Harris-Foulkes estimate   =    -860.05400323 Ry
     estimated scf accuracy    <       0.00028622 Ry

     total magnetization       =     2.02 Bohr mag/cell
     absolute magnetization    =     3.14 Bohr mag/cell

     iteration # 51     ecut=    70.00 Ry     beta= 0.30
     Davidson diagonalization with overlap
     ethr =  1.34E-07,  avg # of iterations =  2.0

     negative rho (up, down):  5.855E-04 3.758E-02

     total cpu time spent up to now is     5200.6 secs

     total energy              =    -860.05396642 Ry
     Harris-Foulkes estimate   =    -860.05410037 Ry
     estimated scf accuracy    <       0.00441752 Ry

     total magnetization       =     1.77 Bohr mag/cell
     absolute magnetization    =     3.17 Bohr mag/cell

     iteration # 52     ecut=    70.00 Ry     beta= 0.30
     Davidson diagonalization with overlap
     ethr =  1.34E-07,  avg # of iterations =  2.5

     negative rho (up, down):  5.712E-04 2.643E-02

     total cpu time spent up to now is     5295.2 secs

     total energy              =    -860.05406168 Ry
     Harris-Foulkes estimate   =    -860.05405201 Ry
     estimated scf accuracy    <       0.00049158 Ry

     total magnetization       =     2.15 Bohr mag/cell
     absolute magnetization    =     3.15 Bohr mag/cell

     iteration # 53     ecut=    70.00 Ry     beta= 0.30
     Davidson diagonalization with overlap
     ethr =  1.34E-07,  avg # of iterations =  2.0

     negative rho (up, down):  5.764E-04 2.803E-02

     total cpu time spent up to now is     5390.4 secs

     total energy              =    -860.05411269 Ry
     Harris-Foulkes estimate   =    -860.05409691 Ry
     estimated scf accuracy    <       0.00116851 Ry

     total magnetization       =     1.89 Bohr mag/cell
     absolute magnetization    =     3.16 Bohr mag/cell

     iteration # 54     ecut=    70.00 Ry     beta= 0.30
     Davidson diagonalization with overlap
     ethr =  1.34E-07,  avg # of iterations =  1.0

     negative rho (up, down):  5.808E-04 3.117E-02

     total cpu time spent up to now is     5481.9 secs

     total energy              =    -860.05407701 Ry
     Harris-Foulkes estimate   =    -860.05411714 Ry
     estimated scf accuracy    <       0.00307388 Ry

     total magnetization       =     1.84 Bohr mag/cell
     absolute magnetization    =     3.15 Bohr mag/cell

     iteration # 55     ecut=    70.00 Ry     beta= 0.30
     Davidson diagonalization with overlap
     ethr =  1.34E-07,  avg # of iterations =  2.0

     negative rho (up, down):  5.656E-04 3.050E-02

     total cpu time spent up to now is     5574.1 secs

     total energy              =    -860.05407407 Ry
     Harris-Foulkes estimate   =    -860.05409787 Ry
     estimated scf accuracy    <       0.00018586 Ry

     total magnetization       =     2.02 Bohr mag/cell
     absolute magnetization    =     3.16 Bohr mag/cell

     iteration # 56     ecut=    70.00 Ry     beta= 0.30
     Davidson diagonalization with overlap
     ethr =  8.69E-08,  avg # of iterations =  2.0

     negative rho (up, down):  5.611E-04 2.749E-02

     total cpu time spent up to now is     5675.2 secs

     total energy              =    -860.05412020 Ry
     Harris-Foulkes estimate   =    -860.05411841 Ry
     estimated scf accuracy    <       0.00064801 Ry

     total magnetization       =     2.15 Bohr mag/cell
     absolute magnetization    =     3.17 Bohr mag/cell

     iteration # 57     ecut=    70.00 Ry     beta= 0.30
     Davidson diagonalization with overlap
     ethr =  8.69E-08,  avg # of iterations =  2.0

     negative rho (up, down):  5.537E-04 2.672E-02

     total cpu time spent up to now is     5767.2 secs

     total energy              =    -860.05413630 Ry
     Harris-Foulkes estimate   =    -860.05412267 Ry
     estimated scf accuracy    <       0.00043451 Ry

     total magnetization       =     2.10 Bohr mag/cell
     absolute magnetization    =     3.18 Bohr mag/cell

     iteration # 58     ecut=    70.00 Ry     beta= 0.30
     Davidson diagonalization with overlap
     ethr =  8.69E-08,  avg # of iterations =  2.0

     negative rho (up, down):  5.658E-04 2.736E-02

     total cpu time spent up to now is     5859.5 secs

     total energy              =    -860.05413668 Ry
     Harris-Foulkes estimate   =    -860.05414758 Ry
     estimated scf accuracy    <       0.00082772 Ry

     total magnetization       =     2.17 Bohr mag/cell
     absolute magnetization    =     3.17 Bohr mag/cell

     iteration # 59     ecut=    70.00 Ry     beta= 0.30
     Davidson diagonalization with overlap
     ethr =  8.69E-08,  avg # of iterations =  2.0

     negative rho (up, down):  5.577E-04 2.832E-02

     total cpu time spent up to now is     5953.7 secs

     total energy              =    -860.05416346 Ry
     Harris-Foulkes estimate   =    -860.05415704 Ry
     estimated scf accuracy    <       0.00072272 Ry

     total magnetization       =     2.16 Bohr mag/cell
     absolute magnetization    =     3.18 Bohr mag/cell

     iteration # 60     ecut=    70.00 Ry     beta= 0.30
     Davidson diagonalization with overlap
     ethr =  8.69E-08,  avg # of iterations =  2.0

     negative rho (up, down):  5.517E-04 2.887E-02

     total cpu time spent up to now is     6049.9 secs

     total energy              =    -860.05406758 Ry
     Harris-Foulkes estimate   =    -860.05418248 Ry
     estimated scf accuracy    <       0.00061350 Ry

     total magnetization       =     2.15 Bohr mag/cell
     absolute magnetization    =     3.16 Bohr mag/cell

     iteration # 61     ecut=    70.00 Ry     beta= 0.30
     Davidson diagonalization with overlap
     ethr =  8.69E-08,  avg # of iterations =  3.5

     negative rho (up, down):  5.505E-04 3.133E-02

     total cpu time spent up to now is     6158.2 secs

     total energy              =    -860.05423533 Ry
     Harris-Foulkes estimate   =    -860.05443640 Ry
     estimated scf accuracy    <       0.00416639 Ry

     total magnetization       =     1.86 Bohr mag/cell
     absolute magnetization    =     3.16 Bohr mag/cell

     iteration # 62     ecut=    70.00 Ry     beta= 0.30
     Davidson diagonalization with overlap
     ethr =  8.69E-08,  avg # of iterations =  2.5

     negative rho (up, down):  5.502E-04 3.553E-02

     total cpu time spent up to now is     6263.6 secs

     total energy              =    -860.05395931 Ry
     Harris-Foulkes estimate   =    -860.05426148 Ry
     estimated scf accuracy    <       0.00824072 Ry

     total magnetization       =     1.71 Bohr mag/cell
     absolute magnetization    =     3.19 Bohr mag/cell

     iteration # 63     ecut=    70.00 Ry     beta= 0.30
     Davidson diagonalization with overlap
     ethr =  8.69E-08,  avg # of iterations =  3.0

     negative rho (up, down):  5.582E-04 3.036E-02

     total cpu time spent up to now is     6369.6 secs

     total energy              =    -860.05423890 Ry
     Harris-Foulkes estimate   =    -860.05420112 Ry
     estimated scf accuracy    <       0.00069227 Ry

     total magnetization       =     2.15 Bohr mag/cell
     absolute magnetization    =     3.17 Bohr mag/cell

     iteration # 64     ecut=    70.00 Ry     beta= 0.30
     Davidson diagonalization with overlap
     ethr =  8.69E-08,  avg # of iterations =  2.0

     negative rho (up, down):  5.503E-04 3.835E-02

     total cpu time spent up to now is     6464.8 secs

     total energy              =    -860.05411540 Ry
     Harris-Foulkes estimate   =    -860.05426180 Ry
     estimated scf accuracy    <       0.00028824 Ry

     total magnetization       =     2.11 Bohr mag/cell
     absolute magnetization    =     3.17 Bohr mag/cell

     iteration # 65     ecut=    70.00 Ry     beta= 0.30
     Davidson diagonalization with overlap
     ethr =  8.69E-08,  avg # of iterations =  3.0

     negative rho (up, down):  5.363E-04 3.181E-02

     total cpu time spent up to now is     6569.2 secs

     total energy              =    -860.05422729 Ry
     Harris-Foulkes estimate   =    -860.05421185 Ry
     estimated scf accuracy    <       0.00064740 Ry

     total magnetization       =     2.14 Bohr mag/cell
     absolute magnetization    =     3.16 Bohr mag/cell

     iteration # 66     ecut=    70.00 Ry     beta= 0.30
     Davidson diagonalization with overlap
     ethr =  8.69E-08,  avg # of iterations =  2.0

     negative rho (up, down):  5.396E-04 3.933E-02

     total cpu time spent up to now is     6668.0 secs

     total energy              =    -860.05412546 Ry
     Harris-Foulkes estimate   =    -860.05424764 Ry
     estimated scf accuracy    <       0.00032342 Ry

     total magnetization       =     2.07 Bohr mag/cell
     absolute magnetization    =     3.17 Bohr mag/cell

     iteration # 67     ecut=    70.00 Ry     beta= 0.30
     Davidson diagonalization with overlap
     ethr =  8.69E-08,  avg # of iterations =  2.0

     negative rho (up, down):  5.916E-04 4.140E-02

     total cpu time spent up to now is     6771.6 secs

     total energy              =    -860.05411465 Ry
     Harris-Foulkes estimate   =    -860.05419514 Ry
     estimated scf accuracy    <       0.00057894 Ry

     total magnetization       =     2.14 Bohr mag/cell
     absolute magnetization    =     3.16 Bohr mag/cell

     iteration # 68     ecut=    70.00 Ry     beta= 0.30
     Davidson diagonalization with overlap
     ethr =  8.69E-08,  avg # of iterations =  3.5

     negative rho (up, down):  5.727E-04 5.614E-02

     total cpu time spent up to now is     6881.9 secs

     total energy              =    -860.05391724 Ry
     Harris-Foulkes estimate   =    -860.05435697 Ry
     estimated scf accuracy    <       0.00173662 Ry

     total magnetization       =     2.13 Bohr mag/cell
     absolute magnetization    =     3.23 Bohr mag/cell

     iteration # 69     ecut=    70.00 Ry     beta= 0.30
     Davidson diagonalization with overlap
     ethr =  8.69E-08,  avg # of iterations =  3.0

     negative rho (up, down):  5.587E-04 5.060E-02

     total cpu time spent up to now is     6994.7 secs

     total energy              =    -860.05410041 Ry
     Harris-Foulkes estimate   =    -860.05407986 Ry
     estimated scf accuracy    <       0.00019700 Ry

     total magnetization       =     2.00 Bohr mag/cell
     absolute magnetization    =     3.13 Bohr mag/cell

     iteration # 70     ecut=    70.00 Ry     beta= 0.30
     Davidson diagonalization with overlap
     ethr =  8.69E-08,  avg # of iterations =  2.0

     negative rho (up, down):  5.784E-04 4.748E-02

     total cpu time spent up to now is     7099.5 secs

     total energy              =    -860.05392767 Ry
     Harris-Foulkes estimate   =    -860.05416190 Ry
     estimated scf accuracy    <       0.00020839 Ry

     total magnetization       =     2.00 Bohr mag/cell
     absolute magnetization    =     3.13 Bohr mag/cell

     iteration # 71     ecut=    70.00 Ry     beta= 0.30
     Davidson diagonalization with overlap
     ethr =  8.69E-08,  avg # of iterations =  3.0

     negative rho (up, down):  5.396E-04 3.537E-02

     total cpu time spent up to now is     7206.1 secs

     total energy              =    -860.05404330 Ry
     Harris-Foulkes estimate   =    -860.05406410 Ry
     estimated scf accuracy    <       0.00016386 Ry

     total magnetization       =     2.00 Bohr mag/cell
     absolute magnetization    =     3.13 Bohr mag/cell

     iteration # 72     ecut=    70.00 Ry     beta= 0.30
     Davidson diagonalization with overlap
     ethr =  7.66E-08,  avg # of iterations =  3.0

     negative rho (up, down):  5.434E-04 2.691E-02

     total cpu time spent up to now is     7300.8 secs

     total energy              =    -860.05412079 Ry
     Harris-Foulkes estimate   =    -860.05409229 Ry
     estimated scf accuracy    <       0.00028650 Ry

     total magnetization       =     2.00 Bohr mag/cell
     absolute magnetization    =     3.12 Bohr mag/cell

     iteration # 73     ecut=    70.00 Ry     beta= 0.30
     Davidson diagonalization with overlap
     ethr =  7.66E-08,  avg # of iterations =  3.0

     negative rho (up, down):  5.657E-04 3.946E-02

     total cpu time spent up to now is     7406.8 secs

     total energy              =    -860.05393209 Ry
     Harris-Foulkes estimate   =    -860.05420054 Ry
     estimated scf accuracy    <       0.00035751 Ry

     total magnetization       =     2.00 Bohr mag/cell
     absolute magnetization    =     3.14 Bohr mag/cell

     iteration # 74     ecut=    70.00 Ry     beta= 0.30
     Davidson diagonalization with overlap
     ethr =  7.66E-08,  avg # of iterations =  3.0

     negative rho (up, down):  5.569E-04 4.506E-02

     total cpu time spent up to now is     7516.7 secs

     total energy              =    -860.05390520 Ry
     Harris-Foulkes estimate   =    -860.05407921 Ry
     estimated scf accuracy    <       0.00012868 Ry

     total magnetization       =     2.00 Bohr mag/cell
     absolute magnetization    =     3.14 Bohr mag/cell

     iteration # 75     ecut=    70.00 Ry     beta= 0.30
     Davidson diagonalization with overlap
     ethr =  6.01E-08,  avg # of iterations =  2.0

     negative rho (up, down):  5.472E-04 3.657E-02

     total cpu time spent up to now is     7623.3 secs

     total energy              =    -860.05400715 Ry
     Harris-Foulkes estimate   =    -860.05399807 Ry
     estimated scf accuracy    <       0.00001457 Ry

     total magnetization       =     2.00 Bohr mag/cell
     absolute magnetization    =     3.14 Bohr mag/cell

     iteration # 76     ecut=    70.00 Ry     beta= 0.30
     Davidson diagonalization with overlap
     ethr =  6.81E-09,  avg # of iterations =  2.5

     negative rho (up, down):  5.371E-04 2.644E-02

     total cpu time spent up to now is     7729.1 secs

     total energy              =    -860.05402679 Ry
     Harris-Foulkes estimate   =    -860.05401373 Ry
     estimated scf accuracy    <       0.00000634 Ry

     total magnetization       =     2.00 Bohr mag/cell
     absolute magnetization    =     3.14 Bohr mag/cell

     iteration # 77     ecut=    70.00 Ry     beta= 0.30
     Davidson diagonalization with overlap
     ethr =  2.96E-09,  avg # of iterations =  3.0

     negative rho (up, down):  5.315E-04 1.917E-02

     total cpu time spent up to now is     7829.3 secs

     total energy              =    -860.05403712 Ry
     Harris-Foulkes estimate   =    -860.05402884 Ry
     estimated scf accuracy    <       0.00000411 Ry

     total magnetization       =     2.00 Bohr mag/cell
     absolute magnetization    =     3.15 Bohr mag/cell

     iteration # 78     ecut=    70.00 Ry     beta= 0.30
     Davidson diagonalization with overlap
     ethr =  1.92E-09,  avg # of iterations =  2.0

     negative rho (up, down):  5.285E-04 1.420E-02

     total cpu time spent up to now is     7923.3 secs

     total energy              =    -860.05404259 Ry
     Harris-Foulkes estimate   =    -860.05403751 Ry
     estimated scf accuracy    <       0.00000384 Ry

     total magnetization       =     2.00 Bohr mag/cell
     absolute magnetization    =     3.16 Bohr mag/cell

     iteration # 79     ecut=    70.00 Ry     beta= 0.30
     Davidson diagonalization with overlap
     ethr =  1.79E-09,  avg # of iterations =  2.0

     negative rho (up, down):  5.286E-04 1.108E-02

     total cpu time spent up to now is     8024.6 secs

     total energy              =    -860.05404238 Ry
     Harris-Foulkes estimate   =    -860.05404324 Ry
     estimated scf accuracy    <       0.00000438 Ry

     total magnetization       =     2.00 Bohr mag/cell
     absolute magnetization    =     3.16 Bohr mag/cell

     iteration # 80     ecut=    70.00 Ry     beta= 0.30
     Davidson diagonalization with overlap
     ethr =  1.79E-09,  avg # of iterations =  2.0

     negative rho (up, down):  5.272E-04 9.829E-03

     total cpu time spent up to now is     8122.6 secs

     total energy              =    -860.05404196 Ry
     Harris-Foulkes estimate   =    -860.05404280 Ry
     estimated scf accuracy    <       0.00000393 Ry

     total magnetization       =     2.00 Bohr mag/cell
     absolute magnetization    =     3.16 Bohr mag/cell

     iteration # 81     ecut=    70.00 Ry     beta= 0.30
     Davidson diagonalization with overlap
     ethr =  1.79E-09,  avg # of iterations =  2.0

     negative rho (up, down):  5.253E-04 8.748E-03

     total cpu time spent up to now is     8223.5 secs

     total energy              =    -860.05404431 Ry
     Harris-Foulkes estimate   =    -860.05404267 Ry
     estimated scf accuracy    <       0.00000362 Ry

     total magnetization       =     2.00 Bohr mag/cell
     absolute magnetization    =     3.16 Bohr mag/cell

     iteration # 82     ecut=    70.00 Ry     beta= 0.30
     Davidson diagonalization with overlap
     ethr =  1.69E-09,  avg # of iterations =  2.5

     negative rho (up, down):  5.254E-04 8.465E-03

     total cpu time spent up to now is     8316.9 secs

     total energy              =    -860.05404464 Ry
     Harris-Foulkes estimate   =    -860.05404467 Ry
     estimated scf accuracy    <       0.00000401 Ry

     total magnetization       =     2.00 Bohr mag/cell
     absolute magnetization    =     3.17 Bohr mag/cell

     iteration # 83     ecut=    70.00 Ry     beta= 0.30
     Davidson diagonalization with overlap
     ethr =  1.69E-09,  avg # of iterations =  1.0

     negative rho (up, down):  5.262E-04 9.032E-03

     total cpu time spent up to now is     8408.2 secs

     total energy              =    -860.05404230 Ry
     Harris-Foulkes estimate   =    -860.05404465 Ry
     estimated scf accuracy    <       0.00000398 Ry

     total magnetization       =     2.00 Bohr mag/cell
     absolute magnetization    =     3.17 Bohr mag/cell

     iteration # 84     ecut=    70.00 Ry     beta= 0.30
     Davidson diagonalization with overlap
     ethr =  1.69E-09,  avg # of iterations =  2.0

     negative rho (up, down):  5.239E-04 9.687E-03

     total cpu time spent up to now is     8503.7 secs

     total energy              =    -860.05404168 Ry
     Harris-Foulkes estimate   =    -860.05404271 Ry
     estimated scf accuracy    <       0.00000274 Ry

     total magnetization       =     2.00 Bohr mag/cell
     absolute magnetization    =     3.16 Bohr mag/cell

     iteration # 85     ecut=    70.00 Ry     beta= 0.30
     Davidson diagonalization with overlap
     ethr =  1.28E-09,  avg # of iterations =  2.0

     negative rho (up, down):  5.232E-04 8.874E-03

     total cpu time spent up to now is     8608.8 secs

     total energy              =    -860.05404421 Ry
     Harris-Foulkes estimate   =    -860.05404294 Ry
     estimated scf accuracy    <       0.00000208 Ry

     total magnetization       =     2.00 Bohr mag/cell
     absolute magnetization    =     3.17 Bohr mag/cell

     iteration # 86     ecut=    70.00 Ry     beta= 0.30
     Davidson diagonalization with overlap
     ethr =  9.70E-10,  avg # of iterations =  2.0

     negative rho (up, down):  5.238E-04 8.692E-03

     total cpu time spent up to now is     8704.8 secs

     total energy              =    -860.05404226 Ry
     Harris-Foulkes estimate   =    -860.05404437 Ry
     estimated scf accuracy    <       0.00000248 Ry

     total magnetization       =     2.00 Bohr mag/cell
     absolute magnetization    =     3.17 Bohr mag/cell

     iteration # 87     ecut=    70.00 Ry     beta= 0.30
     Davidson diagonalization with overlap
     ethr =  9.70E-10,  avg # of iterations =  2.0

     negative rho (up, down):  5.224E-04 9.171E-03

     total cpu time spent up to now is     8806.2 secs

     total energy              =    -860.05404141 Ry
     Harris-Foulkes estimate   =    -860.05404275 Ry
     estimated scf accuracy    <       0.00000198 Ry

     total magnetization       =     2.00 Bohr mag/cell
     absolute magnetization    =     3.17 Bohr mag/cell

     iteration # 88     ecut=    70.00 Ry     beta= 0.30
     Davidson diagonalization with overlap
     ethr =  9.24E-10,  avg # of iterations =  2.0

     negative rho (up, down):  5.215E-04 8.679E-03

     total cpu time spent up to now is     8910.5 secs

     total energy              =    -860.05404358 Ry
     Harris-Foulkes estimate   =    -860.05404235 Ry
     estimated scf accuracy    <       0.00000121 Ry

     total magnetization       =     2.00 Bohr mag/cell
     absolute magnetization    =     3.17 Bohr mag/cell

     iteration # 89     ecut=    70.00 Ry     beta= 0.30
     Davidson diagonalization with overlap
     ethr =  5.66E-10,  avg # of iterations =  2.0

     negative rho (up, down):  5.211E-04 8.305E-03

     total cpu time spent up to now is     9013.3 secs

     total energy              =    -860.05404450 Ry
     Harris-Foulkes estimate   =    -860.05404384 Ry
     estimated scf accuracy    <       0.00000100 Ry

     total magnetization       =     2.00 Bohr mag/cell
     absolute magnetization    =     3.17 Bohr mag/cell

     iteration # 90     ecut=    70.00 Ry     beta= 0.30
     Davidson diagonalization with overlap
     ethr =  4.68E-10,  avg # of iterations =  2.0

     negative rho (up, down):  5.213E-04 7.955E-03

     total cpu time spent up to now is     9110.3 secs

     total energy              =    -860.05404429 Ry
     Harris-Foulkes estimate   =    -860.05404461 Ry
     estimated scf accuracy    <       0.00000111 Ry

     total magnetization       =     2.00 Bohr mag/cell
     absolute magnetization    =     3.17 Bohr mag/cell

     iteration # 91     ecut=    70.00 Ry     beta= 0.30
     Davidson diagonalization with overlap
     ethr =  4.68E-10,  avg # of iterations =  2.0

     negative rho (up, down):  5.212E-04 7.747E-03

     total cpu time spent up to now is     9204.1 secs

     total energy              =    -860.05404467 Ry
     Harris-Foulkes estimate   =    -860.05404434 Ry
     estimated scf accuracy    <       0.00000104 Ry

     total magnetization       =     2.00 Bohr mag/cell
     absolute magnetization    =     3.17 Bohr mag/cell

     iteration # 92     ecut=    70.00 Ry     beta= 0.30
     Davidson diagonalization with overlap
     ethr =  4.68E-10,  avg # of iterations =  1.5

     negative rho (up, down):  5.214E-04 7.884E-03

     total cpu time spent up to now is     9295.8 secs

     total energy              =    -860.05404424 Ry
     Harris-Foulkes estimate   =    -860.05404471 Ry
     estimated scf accuracy    <       0.00000109 Ry

     total magnetization       =     2.00 Bohr mag/cell
     absolute magnetization    =     3.17 Bohr mag/cell

     iteration # 93     ecut=    70.00 Ry     beta= 0.30
     Davidson diagonalization with overlap
     ethr =  4.68E-10,  avg # of iterations =  2.0

     negative rho (up, down):  5.203E-04 7.537E-03

     Magnetic moment per site:
     atom:    1    charge:    0.2108    magn:   -0.0000    constr:    0.0000
     atom:    2    charge:    0.2118    magn:   -0.0000    constr:    0.0000
     atom:    3    charge:    1.7171    magn:   -0.0126    constr:    0.0000
     atom:    4    charge:    1.7153    magn:    0.0177    constr:    0.0000
     atom:    5    charge:    1.7177    magn:   -0.0086    constr:    0.0000
     atom:    6    charge:    1.7142    magn:    0.0056    constr:    0.0000
     atom:    7    charge:    1.7177    magn:   -0.0086    constr:    0.0000
     atom:    8    charge:    1.7153    magn:    0.0177    constr:    0.0000
     atom:    9    charge:    1.7171    magn:   -0.0125    constr:    0.0000
     atom:   10    charge:    1.7149    magn:    0.0586    constr:    0.0000
     atom:   11    charge:    1.7176    magn:   -0.0171    constr:    0.0000
     atom:   12    charge:    1.7149    magn:    0.0587    constr:    0.0000
     atom:   13    charge:    1.7176    magn:   -0.0171    constr:    0.0000
     atom:   14    charge:    1.7155    magn:    0.0457    constr:    0.0000
     atom:   15    charge:    1.7140    magn:   -0.0135    constr:    0.0000
     atom:   16    charge:    1.7106    magn:    0.0555    constr:    0.0000
     atom:   17    charge:    1.7228    magn:   -0.0121    constr:    0.0000
     atom:   18    charge:    1.7106    magn:    0.0556    constr:    0.0000
     atom:   19    charge:    1.7140    magn:   -0.0136    constr:    0.0000
     atom:   20    charge:    1.7155    magn:    0.0459    constr:    0.0000
     atom:   21    charge:    1.7176    magn:   -0.0171    constr:    0.0000
     atom:   22    charge:    1.7149    magn:    0.0586    constr:    0.0000
     atom:   23    charge:    1.7171    magn:   -0.0125    constr:    0.0000
     atom:   24    charge:    1.7153    magn:    0.0176    constr:    0.0000
     atom:   25    charge:    1.7140    magn:   -0.0133    constr:    0.0000
     atom:   26    charge:    1.7106    magn:    0.0552    constr:    0.0000
     atom:   27    charge:    1.8519    magn:   -0.0195    constr:    0.0000
     atom:   28    charge:   11.1427    magn:    0.4530    constr:    0.0000
     atom:   29    charge:    1.8519    magn:   -0.0196    constr:    0.0000
     atom:   30    charge:    1.7106    magn:    0.0556    constr:    0.0000
     atom:   31    charge:    1.7140    magn:   -0.0136    constr:    0.0000
     atom:   32    charge:    1.7153    magn:    0.0177    constr:    0.0000
     atom:   33    charge:    1.7177    magn:   -0.0086    constr:    0.0000
     atom:   34    charge:    1.7139    magn:    0.0124    constr:    0.0000
     atom:   35    charge:    1.7177    magn:   -0.0085    constr:    0.0000
     atom:   36    charge:    1.7142    magn:    0.0055    constr:    0.0000
     atom:   37    charge:    1.7229    magn:   -0.0119    constr:    0.0000
     atom:   38    charge:    1.7106    magn:    0.0552    constr:    0.0000
     atom:   39    charge:    1.8519    magn:   -0.0195    constr:    0.0000
     atom:   40    charge:    1.7106    magn:    0.0555    constr:    0.0000
     atom:   41    charge:    1.7228    magn:   -0.0121    constr:    0.0000
     atom:   42    charge:    1.7142    magn:    0.0056    constr:    0.0000
     atom:   43    charge:    1.7177    magn:   -0.0086    constr:    0.0000
     atom:   44    charge:    1.7139    magn:    0.0125    constr:    0.0000
     atom:   45    charge:    1.7236    magn:   -0.0050    constr:    0.0000
     atom:   46    charge:    1.7139    magn:    0.0124    constr:    0.0000
     atom:   47    charge:    1.7177    magn:   -0.0085    constr:    0.0000
     atom:   48    charge:    1.7153    magn:    0.0176    constr:    0.0000
     atom:   49    charge:    1.7140    magn:   -0.0133    constr:    0.0000
     atom:   50    charge:    1.7155    magn:    0.0457    constr:    0.0000
     atom:   51    charge:    1.7140    magn:   -0.0135    constr:    0.0000
     atom:   52    charge:    1.7153    magn:    0.0177    constr:    0.0000

     total cpu time spent up to now is     9387.8 secs

     End of self-consistent calculation

 ------ SPIN UP ------------


          k = 0.0000 0.0000 0.0000 ( 87777 PWs)   bands (ev):

   -88.6957 -55.5840 -55.5832 -53.8686 -19.8876 -19.0527 -19.0525 -18.9664
   -18.9282 -18.9277 -18.5842 -17.1776 -17.1776 -17.1774 -17.1059 -17.1057
   -16.8002 -16.3313 -16.3312 -16.2297 -16.1775 -16.1774 -15.4860 -14.2331
   -14.2329 -14.1479 -14.1011 -14.1008 -13.4324 -13.1649 -13.1648 -13.1405
   -12.8603 -12.8602 -12.4514 -11.9437 -11.9435 -11.7555 -11.5080 -11.5080
   -10.6266  -9.7935  -9.7935  -9.5305  -9.4217  -9.4216  -9.3386  -9.3076
    -9.3075  -9.2947  -8.8284  -8.8284  -8.2853  -8.2851  -8.1966  -8.0353
    -7.9371  -7.5478  -7.5476  -7.3407  -7.2247  -7.2242  -7.0803  -7.0800
    -6.9469  -6.9235  -6.9230  -6.8122  -6.6698  -6.6694  -6.6392  -6.6266
    -6.6266  -6.5854  -6.5797  -6.3183  -5.7357  -5.7356  -5.6702  -5.6701
    -5.4813  -5.4812  -5.2754  -5.0921  -4.9821  -4.8451  -4.8192  -4.8186
    -4.5341  -4.5340  -4.5039  -4.3367  -4.3365  -3.9820  -3.9817  -3.8946
    -3.7856  -3.7856  -3.2094  -2.8973  -2.8966  -1.9779  -1.9079  -1.9074
    -1.3008  -1.3006  -1.0622  -0.8901   0.8193   0.8669   0.8676   1.3954
     1.3956   1.5066   2.3863   2.3864   2.5215   2.6617   2.6621   2.7615
     3.2952   3.2969   3.4241   3.6396   3.7062   3.7164   3.7247   3.7558

     occupation numbers 
     1.0000   1.0000   1.0000   1.0000   1.0000   1.0000   1.0000   1.0000
     1.0000   1.0000   1.0000   1.0000   1.0000   1.0000   1.0000   1.0000
     1.0000   1.0000   1.0000   1.0000   1.0000   1.0000   1.0000   1.0000
     1.0000   1.0000   1.0000   1.0000   1.0000   1.0000   1.0000   1.0000
     1.0000   1.0000   1.0000   1.0000   1.0000   1.0000   1.0000   1.0000
     1.0000   1.0000   1.0000   1.0000   1.0000   1.0000   1.0000   1.0000
     1.0000   1.0000   1.0000   1.0000   1.0000   1.0000   1.0000   1.0000
     1.0000   1.0000   1.0000   1.0000   1.0000   1.0000   1.0000   1.0000
     1.0000   1.0000   1.0000   1.0000   1.0000   1.0000   1.0000   1.0000
     1.0000   1.0000   1.0000   1.0000   1.0000   1.0000   1.0000   1.0000
     1.0000   1.0000   1.0000   1.0000   1.0000   1.0000   1.0000   1.0000
     1.0000   1.0000   1.0000   1.0000   1.0000   1.0000   1.0000   1.0000
     1.0000   1.0000   1.0000   1.0000   1.0000   1.0000   1.0000   1.0000
     1.0000   1.0000   1.0000   1.0000   0.0000   0.0000   0.0000   0.0000
     0.0000   0.0000   0.0000   0.0000   0.0000   0.0000   0.0000   0.0000
     0.0000   0.0000   0.0000   0.0000   0.0000   0.0000   0.0000   0.0000

 ------ SPIN DOWN ----------


          k = 0.0000 0.0000 0.0000 ( 87777 PWs)   bands (ev):

   -87.9722 -54.9933 -54.9933 -52.9723 -19.8456 -19.0064 -19.0061 -18.9266
   -18.9020 -18.9015 -18.5253 -17.1500 -17.1412 -17.1411 -17.0520 -17.0519
   -16.7701 -16.2857 -16.2855 -16.1957 -16.1344 -16.1342 -15.4615 -14.1625
   -14.1620 -14.0908 -14.0906 -14.0854 -13.4387 -13.1402 -13.1401 -13.1081
   -12.8413 -12.8412 -12.4209 -11.9062 -11.9060 -11.7327 -11.4862 -11.4861
   -10.6040  -9.7449  -9.7447  -9.4988  -9.3896  -9.3895  -9.3216  -9.2841
    -9.2840  -9.2768  -8.8159  -8.8159  -8.2499  -8.2497  -8.1771  -7.9377
    -7.9201  -7.5332  -7.5331  -7.3090  -7.0600  -7.0595  -7.0342  -7.0341
    -6.8641  -6.8637  -6.8467  -6.7970  -6.6533  -6.6530  -6.6286  -6.6131
    -6.6130  -6.5618  -6.4511  -6.3161  -5.6904  -5.6904  -5.4393  -5.4391
    -5.4358  -5.4352  -5.1962  -5.0784  -4.9723  -4.7703  -4.7266  -4.7261
    -4.4508  -4.4508  -4.4302  -4.2102  -4.2101  -3.8470  -3.8466  -3.7979
    -3.7709  -3.7709  -3.1656  -2.6656  -2.6653  -1.8799  -1.8796  -1.8164
    -0.9043  -0.8503  -0.7936  -0.7913   0.9146   0.9151   0.9769   1.5521
     1.5522   1.6292   2.5315   2.5341   2.5379   2.8030   2.8038   2.8358
     3.4530   3.4554   3.5163   3.6566   3.7151   3.7301   3.7379   3.7623

     occupation numbers 
     1.0000   1.0000   1.0000   1.0000   1.0000   1.0000   1.0000   1.0000
     1.0000   1.0000   1.0000   1.0000   1.0000   1.0000   1.0000   1.0000
     1.0000   1.0000   1.0000   1.0000   1.0000   1.0000   1.0000   1.0000
     1.0000   1.0000   1.0000   1.0000   1.0000   1.0000   1.0000   1.0000
     1.0000   1.0000   1.0000   1.0000   1.0000   1.0000   1.0000   1.0000
     1.0000   1.0000   1.0000   1.0000   1.0000   1.0000   1.0000   1.0000
     1.0000   1.0000   1.0000   1.0000   1.0000   1.0000   1.0000   1.0000
     1.0000   1.0000   1.0000   1.0000   1.0000   1.0000   1.0000   1.0000
     1.0000   1.0000   1.0000   1.0000   1.0000   1.0000   1.0000   1.0000
     1.0000   1.0000   1.0000   1.0000   1.0000   1.0000   1.0000   1.0000
     1.0000   1.0000   1.0000   1.0000   1.0000   1.0000   1.0000   1.0000
     1.0000   1.0000   1.0000   1.0000   1.0000   1.0000   1.0000   1.0000
     1.0000   1.0000   1.0000   1.0000   1.0000   1.0000   1.0000   1.0000
     1.0000   1.0000   0.0000   0.0000   0.0000   0.0000   0.0000   0.0000
     0.0000   0.0000   0.0000   0.0000   0.0000   0.0000   0.0000   0.0000
     0.0000   0.0000   0.0000   0.0000   0.0000   0.0000   0.0000   0.0000

     the Fermi energy is    -0.8377 ev

!    total energy              =    -860.05404600 Ry
     Harris-Foulkes estimate   =    -860.05404430 Ry
     estimated scf accuracy    <       0.00000095 Ry

     The total energy is the sum of the following terms:

     one-electron contribution =   -2779.79937258 Ry
     hartree contribution      =    1433.68927083 Ry
     xc contribution           =    -259.29915326 Ry
     ewald contribution        =     745.35512741 Ry
     smearing contrib. (-TS)   =       0.00008160 Ry

     total magnetization       =     2.00 Bohr mag/cell
     absolute magnetization    =     3.17 Bohr mag/cell

     convergence has been achieved in  93 iterations

     Writing output data file distance-4.0.save/

     init_run     :     74.69s CPU     77.72s WALL (       1 calls)
     electrons    :   9139.91s CPU   9309.12s WALL (       1 calls)

     Called by init_run:
     wfcinit      :     43.54s CPU     43.80s WALL (       1 calls)
     wfcinit:atom :      0.05s CPU      0.08s WALL (       2 calls)
     wfcinit:wfcr :     43.13s CPU     43.30s WALL (       2 calls)
     potinit      :     12.51s CPU     13.88s WALL (       1 calls)
     hinit0       :      8.29s CPU      8.47s WALL (       1 calls)

     Called by electrons:
     c_bands      :   5764.16s CPU   5794.18s WALL (      93 calls)
     sum_band     :   1954.55s CPU   2011.01s WALL (      93 calls)
     v_of_rho     :    687.60s CPU    721.98s WALL (      94 calls)
     v_h          :      7.44s CPU      7.64s WALL (      94 calls)
     v_xc         :    680.15s CPU    714.34s WALL (      94 calls)
     newd         :    691.02s CPU    740.72s WALL (      94 calls)
     mix_rho      :     36.81s CPU     37.34s WALL (      93 calls)

     Called by c_bands:
     init_us_2    :     16.74s CPU     16.80s WALL (     374 calls)
     cegterg      :   5718.12s CPU   5747.88s WALL (     186 calls)

     Called by sum_band:
     sum_band:bec :      0.15s CPU      0.15s WALL (     186 calls)
     addusdens    :   1235.67s CPU   1288.05s WALL (      93 calls)

     Called by *egterg:
     h_psi        :   2996.61s CPU   3016.45s WALL (     672 calls)
     s_psi        :    949.94s CPU    950.44s WALL (     672 calls)
     g_psi        :      3.13s CPU      3.14s WALL (     484 calls)
     cdiaghg      :     44.02s CPU     44.07s WALL (     670 calls)
     cegterg:over :    699.05s CPU    699.52s WALL (     484 calls)
     cegterg:upda :    420.87s CPU    423.29s WALL (     484 calls)
     cegterg:last :    317.34s CPU    317.46s WALL (     186 calls)

     Called by h_psi:
     h_psi:pot    :   2992.83s CPU   3008.82s WALL (     672 calls)
     h_psi:calbec :    949.36s CPU    949.90s WALL (     672 calls)
     vloc_psi     :   1092.08s CPU   1107.17s WALL (     672 calls)
     add_vuspsi   :    951.38s CPU    951.75s WALL (     672 calls)

     General routines
     calbec       :   1369.73s CPU   1370.46s WALL (     858 calls)
     fft          :    395.56s CPU    408.89s WALL (    7044 calls)
     ffts         :      7.42s CPU      7.62s WALL (     374 calls)
     fftw         :   1161.20s CPU   1177.47s WALL (  131068 calls)
     interpolate  :     17.42s CPU     17.85s WALL (     188 calls)

     Parallel routines
     fft_scatt_xy :    318.22s CPU    321.22s WALL (  138486 calls)
     fft_scatt_yz :    490.55s CPU    511.43s WALL (  138486 calls)

     PWSCF        :      2h33m CPU      2h36m WALL


   This run was terminated on:  13:31:37  13Nov2022            

=------------------------------------------------------------------------------=
   JOB DONE.
=------------------------------------------------------------------------------=
