
     Program PWSCF v.6.4.1 starts on 14Sep2022 at  8:31:34 

     This program is part of the open-source Quantum ESPRESSO suite
     for quantum simulation of materials; please cite
         "P. Giannozzi et al., J. Phys.:Condens. Matter 21 395502 (2009);
         "P. Giannozzi et al., J. Phys.:Condens. Matter 29 465901 (2017);
          URL http://www.quantum-espresso.org", 
     in publications or presentations arising from this work. More details at
     http://www.quantum-espresso.org/quote

     Parallel version (MPI), running on     6 processors

     MPI processes distributed on     1 nodes
     R & G space division:  proc/nbgrp/npool/nimage =       6
     Reading input from cu-vcrelax-2.in

     Current dimensions of program PWSCF are:
     Max number of different atomic species (ntypx) = 10
     Max number of k-points (npk) =  40000
     Max angular momentum in pseudopotentials (lmaxx) =  3

     IMPORTANT: XC functional enforced from input :
     Exchange-correlation      = RVV10 ( 1  4 13  4 3 0)
     Any further DFT definition will be discarded
     Please, verify this is what you really want

               file H.pbe-rrkjus.UPF: wavefunction(s)  1S renormalized
               file Cu.pbe-dn-rrkjus_psl.1.0.0.UPF: wavefunction(s)  3D renormalized

     Subspace diagonalization in iterative solution of the eigenvalue problem:
     a serial algorithm will be used


     Parallelization info
     --------------------
     sticks:   dense  smooth     PW     G-vecs:    dense   smooth      PW
     Min        3051    1746    432               270999   117096   14629
     Max        3053    1747    437               271001   117099   14630
     Sum       18313   10477   2611              1626001   702581   87777



     bravais-lattice index     =            4
     lattice parameter (alat)  =      23.2937  a.u.
     unit-cell volume          =    8879.8548 (a.u.)^3
     number of atoms/cell      =           52
     number of atomic types    =            3
     number of electrons       =       209.00
     number of Kohn-Sham states=          126
     kinetic-energy cutoff     =      70.0000  Ry
     charge density cutoff     =     490.0000  Ry
     convergence threshold     =      1.0E-10
     mixing beta               =       0.7000
     number of iterations used =            8  plain     mixing
     Exchange-correlation      = RVV10 ( 1  4 13  4 3 0)
     nstep                     =           50


     celldm(1)=  23.293684  celldm(2)=   0.000000  celldm(3)=   0.811261
     celldm(4)=   0.000000  celldm(5)=   0.000000  celldm(6)=   0.000000

     crystal axes: (cart. coord. in units of alat)
               a(1) = (   1.000000   0.000000   0.000000 )  
               a(2) = (  -0.500000   0.866025   0.000000 )  
               a(3) = (   0.000000   0.000000   0.811261 )  

     reciprocal axes: (cart. coord. in units 2 pi/alat)
               b(1) = (  1.000000  0.577350 -0.000000 )  
               b(2) = (  0.000000  1.154701  0.000000 )  
               b(3) = (  0.000000 -0.000000  1.232649 )  


     PseudoPot. # 1 for H  read from file:
     /home/cristian/Escritorio/Proyecto_Grafeno/pseudopotenciales/H.pbe-rrkjus.UPF
     MD5 check sum: 7cc9d459525c9a0585f487a71c3c9563
     Pseudo is Ultrasoft, Zval =  1.0
     Generated by new atomic code, or converted to UPF format
     Using radial grid of 1061 points,  2 beta functions with: 
                l(1) =   0
                l(2) =   0
     Q(r) pseudized with 0 coefficients 


     PseudoPot. # 2 for C  read from file:
     /home/cristian/Escritorio/Proyecto_Grafeno/pseudopotenciales/C.pbe-n-rrkjus_psl.1.0.0.UPF
     MD5 check sum: 1fdd950c42eb37d8afe3dd2f8d12311e
     Pseudo is Ultrasoft + core correction, Zval =  4.0
     Generated using "atomic" code by A. Dal Corso v.6.3MaX
     Using radial grid of 1073 points,  4 beta functions with: 
                l(1) =   0
                l(2) =   0
                l(3) =   1
                l(4) =   1
     Q(r) pseudized with 0 coefficients 


     PseudoPot. # 3 for Cu read from file:
     /home/cristian/Escritorio/Proyecto_Grafeno/pseudopotenciales/Cu.pbe-dn-rrkjus_psl.1.0.0.UPF
     MD5 check sum: ba3d6c84e19846e79d48cdc68ff7152b
     Pseudo is Ultrasoft + core correction, Zval = 11.0
     Generated using "atomic" code by A. Dal Corso v.6.3
     Using radial grid of 1199 points,  6 beta functions with: 
                l(1) =   0
                l(2) =   0
                l(3) =   1
                l(4) =   1
                l(5) =   2
                l(6) =   2
     Q(r) pseudized with 0 coefficients 


     vdW kernel table read from file rVV10_kernel_table
     MD5 check sum: b8e2538accc0c0b3206b45ba4daaba6c

     atomic species   valence    mass     pseudopotential
        H              1.00     1.00794     H ( 1.00)
        C              4.00    12.01070     C ( 1.00)
        Cu            11.00    63.54600     Cu( 1.00)

     Starting magnetic structure 
     atomic species   magnetization
        H            0.500
        C            0.300
        Cu           0.800

      2 Sym. Ops. (no inversion) found


                                    s                        frac. trans.

      isym =  1     identity                                     

 cryst.   s( 1) = (     1          0          0      )
                  (     0          1          0      )
                  (     0          0          1      )

 cart.    s( 1) = (  1.0000000  0.0000000  0.0000000 )
                  (  0.0000000  1.0000000  0.0000000 )
                  (  0.0000000  0.0000000  1.0000000 )


      isym =  2     inv. 180 deg rotation - cryst. axis [1,1,0]  

 cryst.   s( 2) = (     0         -1          0      )
                  (    -1          0          0      )
                  (     0          0          1      )

 cart.    s( 2) = (  0.5000000 -0.8660254  0.0000000 )
                  ( -0.8660254 -0.5000000  0.0000000 )
                  (  0.0000000  0.0000000  1.0000000 )


     point group C_s (m)    
     there are  2 classes
     the character table:

       E     s    
A'     1.00  1.00
A''    1.00 -1.00

     the symmetry operations in each class and the name of the first element:

     E        1
          identity                                               
     s        2
          inv. 180 deg rotation - cryst. axis [1,1,0]            

   Cartesian axes

     site n.     atom                  positions (alat units)
         1           H   tau(   1) = (   0.2995630   0.4043975   0.2259461  )
         2           H   tau(   2) = (   0.3025692   0.4026619   0.2874849  )
         3           C   tau(   3) = (  -0.0003200   0.0001848  -0.0028055  )
         4           C   tau(   4) = (   0.0007025   0.1166124  -0.0042905  )
         5           C   tau(   5) = (  -0.0992066   0.1734005  -0.0030455  )
         6           C   tau(   6) = (  -0.0986450   0.2891703  -0.0072957  )
         7           C   tau(   7) = (  -0.1991212   0.3463539  -0.0041293  )
         8           C   tau(   8) = (  -0.2017884   0.4619436  -0.0067019  )
         9           C   tau(   9) = (  -0.3011183   0.5198187  -0.0007126  )
        10           C   tau(  10) = (  -0.3014278   0.6353512   0.0017750  )
        11           C   tau(  11) = (  -0.4010596   0.6931177   0.0018215  )
        12           C   tau(  12) = (  -0.4007684   0.8087340   0.0007344  )
        13           C   tau(  13) = (   0.1992127   0.0007689   0.0018215  )
        14           C   tau(  14) = (   0.2004228   0.1164807  -0.0014725  )
        15           C   tau(  15) = (   0.1012942   0.1750711  -0.0046136  )
        16           C   tau(  16) = (   0.1022105   0.2925492  -0.0041547  )
        17           C   tau(  17) = (   0.0003091   0.3481480  -0.0082009  )
        18           C   tau(  18) = (  -0.0038439   0.4639550  -0.0054042  )
        19           C   tau(  19) = (  -0.1037342   0.5212003  -0.0117787  )
        20           C   tau(  20) = (  -0.1029877   0.6368102  -0.0086202  )
        21           C   tau(  21) = (  -0.2021712   0.6940739  -0.0005781  )
        22           C   tau(  22) = (  -0.2009442   0.8093939   0.0017750  )
        23           C   tau(  23) = (   0.3992647   0.0008668  -0.0007126  )
        24           C   tau(  24) = (   0.4007707   0.1156693  -0.0005811  )
        25           C   tau(  25) = (   0.3011311   0.1728025  -0.0024213  )
        26           C   tau(  26) = (   0.3039896   0.2881478  -0.0021197  )
        27           C   tau(  27) = (   0.2057558   0.3430491   0.0063188  )
        28           Cu  tau(  28) = (   0.1977706   0.4631674   0.1036269  )
        29           C   tau(  29) = (   0.0870260   0.5271058   0.0195973  )
        30           C   tau(  30) = (   0.0962812   0.6373768  -0.0054042  )
        31           C   tau(  31) = (  -0.0032399   0.6952617  -0.0117787  )
        32           C   tau(  32) = (  -0.0009491   0.8098075  -0.0067019  )
        33           C   tau(  33) = (   0.6004881  -0.0007330  -0.0041293  )
        34           C   tau(  34) = (   0.6014910   0.1141392   0.0023448  )
        35           C   tau(  35) = (   0.5018769   0.1714010   0.0004013  )
        36           C   tau(  36) = (   0.5037110   0.2865326  -0.0023831  )
        37           C   tau(  37) = (   0.4050871   0.3434731  -0.0051162  )
        38           C   tau(  38) = (   0.4024515   0.4586888  -0.0021197  )
        39           C   tau(  39) = (   0.3057886   0.5163111   0.0063188  )
        40           C   tau(  40) = (   0.2977502   0.6312340  -0.0041547  )
        41           C   tau(  41) = (   0.1986496   0.6916837  -0.0082009  )
        42           C   tau(  42) = (   0.2002487   0.8068693  -0.0072957  )
        43           C   tau(  43) = (   0.8002274  -0.0007848  -0.0030455  )
        44           C   tau(  44) = (   0.8008270   0.1149926   0.0014392  )
        45           C   tau(  45) = (   0.7011994   0.1725126   0.0044955  )
        46           C   tau(  46) = (   0.7018980   0.2880494   0.0023448  )
        47           C   tau(  47) = (   0.6025009   0.3456868   0.0004013  )
        48           C   tau(  48) = (   0.6002128   0.4611131  -0.0005811  )
        49           C   tau(  49) = (   0.5009141   0.5188370  -0.0024213  )
        50           C   tau(  50) = (   0.4993362   0.6342138  -0.0014725  )
        51           C   tau(  51) = (   0.3990311   0.6907665  -0.0046136  )
        52           C   tau(  52) = (   0.3993620   0.8071108  -0.0042905  )

   Crystallographic axes

     site n.     atom                  positions (cryst. coord.)
         1           H   tau(   1) = (  0.5330420  0.4669580  0.2785121  )
         2           H   tau(   2) = (  0.5350461  0.4649539  0.3543678  )
         3           C   tau(   3) = ( -0.0002133  0.0002133 -0.0034582  )
         4           C   tau(   4) = (  0.0680287  0.1346524 -0.0052887  )
         5           C   tau(   5) = (  0.0009062  0.2002257 -0.0037540  )
         6           C   tau(   6) = (  0.0683076  0.3339051 -0.0089930  )
         7           C   tau(   7) = (  0.0008464  0.3999351 -0.0050899  )
         8           C   tau(   8) = (  0.0649149  0.5334065 -0.0082611  )
         9           C   tau(   9) = ( -0.0010009  0.6002349 -0.0008784  )
        10           C   tau(  10) = (  0.0653924  0.7336404  0.0021879  )
        11           C   tau(  11) = ( -0.0008879  0.8003434  0.0022453  )
        12           C   tau(  12) = (  0.0661544  0.9338456  0.0009053  )
        13           C   tau(  13) = (  0.1996566  0.0008879  0.0022453  )
        14           C   tau(  14) = (  0.2676730  0.1345003 -0.0018151  )
        15           C   tau(  15) = (  0.2023716  0.2021547 -0.0056869  )
        16           C   tau(  16) = (  0.2711138  0.3378067 -0.0051213  )
        17           C   tau(  17) = (  0.2013124  0.4020066 -0.0101088  )
        18           C   tau(  18) = (  0.2640206  0.5357291 -0.0066614  )
        19           C   tau(  19) = (  0.1971809  0.6018303 -0.0145190  )
        20           C   tau(  20) = (  0.2646749  0.7353251 -0.0106257  )
        21           C   tau(  21) = (  0.1985525  0.8014475 -0.0007127  )
        22           C   tau(  22) = (  0.2663596  0.9346076  0.0021879  )
        23           C   tau(  23) = (  0.3997651  0.0010009 -0.0008784  )
        24           C   tau(  24) = (  0.4675524  0.1335634 -0.0007163  )
        25           C   tau(  25) = (  0.4008987  0.1995352 -0.0029846  )
        26           C   tau(  26) = (  0.4703518  0.3327244 -0.0026129  )
        27           C   tau(  27) = (  0.4038153  0.3961190  0.0077889  )
        28           Cu  tau(  28) = (  0.4651804  0.5348196  0.1277355  )
        29           C   tau(  29) = (  0.3913507  0.6086493  0.0241565  )
        30           C   tau(  30) = (  0.4642709  0.7359794 -0.0066614  )
        31           C   tau(  31) = (  0.3981697  0.8028191 -0.0145190  )
        32           C   tau(  32) = (  0.4665935  0.9350851 -0.0082611  )
        33           C   tau(  33) = (  0.6000649 -0.0008464 -0.0050899  )
        34           C   tau(  34) = (  0.6673892  0.1317966  0.0028903  )
        35           C   tau(  35) = (  0.6008353  0.1979168  0.0004947  )
        36           C   tau(  36) = (  0.6691407  0.3308593 -0.0029375  )
        37           C   tau(  37) = (  0.6033914  0.3966086 -0.0063064  )
        38           C   tau(  38) = (  0.6672756  0.5296482 -0.0026129  )
        39           C   tau(  39) = (  0.6038810  0.5961847  0.0077889  )
        40           C   tau(  40) = (  0.6621933  0.7288862 -0.0051213  )
        41           C   tau(  41) = (  0.5979934  0.7986876 -0.0101088  )
        42           C   tau(  42) = (  0.6660949  0.9316924 -0.0089930  )
        43           C   tau(  43) = (  0.7997743 -0.0009062 -0.0037540  )
        44           C   tau(  44) = (  0.8672180  0.1327820  0.0017740  )
        45           C   tau(  45) = (  0.8007996  0.1992004  0.0055414  )
        46           C   tau(  46) = (  0.8682034  0.3326108  0.0028903  )
        47           C   tau(  47) = (  0.8020832  0.3991647  0.0004947  )
        48           C   tau(  48) = (  0.8664366  0.5324476 -0.0007163  )
        49           C   tau(  49) = (  0.8004648  0.5991013 -0.0029846  )
        50           C   tau(  50) = (  0.8654997  0.7323270 -0.0018151  )
        51           C   tau(  51) = (  0.7978453  0.7976284 -0.0056869  )
        52           C   tau(  52) = (  0.8653476  0.9319713 -0.0052887  )

     number of k points=     1  Marzari-Vanderbilt smearing, width (Ry)=  0.0010
                       cart. coord. in units 2pi/alat
        k(    1) = (   0.0000000   0.0000000   0.0000000), wk =   1.0000000

                       cryst. coord.
        k(    1) = (   0.0000000   0.0000000   0.0000000), wk =   1.0000000

     Dense  grid:  1626001 G-vectors     FFT dimensions: ( 180, 180, 135)

     Smooth grid:   702581 G-vectors     FFT dimensions: ( 125, 125, 108)

     Dynamical RAM for                 wfc:      28.14 MB

     Dynamical RAM for     wfc (w. buffer):      84.42 MB

     Dynamical RAM for           str. fact:      12.41 MB

     Dynamical RAM for           local pot:       0.00 MB

     Dynamical RAM for          nlocal pot:      92.46 MB

     Dynamical RAM for                qrad:      19.73 MB

     Dynamical RAM for          rho,v,vnew:      58.92 MB

     Dynamical RAM for               rhoin:      19.64 MB

     Dynamical RAM for            rho*nmix:     132.32 MB

     Dynamical RAM for           G-vectors:      16.40 MB

     Dynamical RAM for          h,s,v(r/c):      11.63 MB

     Dynamical RAM for          <psi|beta>:       0.80 MB

     Dynamical RAM for                 psi:     112.56 MB

     Dynamical RAM for                hpsi:     112.56 MB

     Dynamical RAM for                spsi:     112.56 MB

     Dynamical RAM for      wfcinit/wfcrot:      93.45 MB

     Dynamical RAM for           addusdens:     975.89 MB

     Dynamical RAM for          addusforce:    1410.48 MB

     Estimated static dynamical RAM per process >     486.96 MB

     Estimated max dynamical RAM per process >       1.85 GB

     Estimated total dynamical RAM >      11.12 GB
     Generating pointlists ...
     new r_m :   0.0254 (alat units)  0.5922 (a.u.) for type    1
     new r_m :   0.0466 (alat units)  1.0843 (a.u.) for type    2
     new r_m :   0.0631 (alat units)  1.4703 (a.u.) for type    3

     Check: negative core charge=   -0.000002

     Initial potential from superposition of free atoms

     starting charge  208.80532, renormalised to  209.00000

     negative rho (up, down):  6.472E-05 1.061E-02


---------------------------------------------------------------------------------
Carrying out rVV10 run using the following parameters:
Nqs =      20    Nr_points =    1024   r_max =   100.000
b_value =  6.30000    beta =  0.00901
     q_mesh =  0.00010000  0.00030000  0.00058939  0.00100810
               0.00161396  0.00249058  0.00375900  0.00559430
               0.00824984  0.01209221  0.01765183  0.02569619
               0.03733578  0.05417739  0.07854596  0.11380545
               0.16482331  0.23864234  0.34545298  0.50000000

Gradients computed in Reciprocal space

---------------------------------------------------------------------------------


     Starting wfcs are  207 randomized atomic wfcs

     total cpu time spent up to now is       91.2 secs

     Self-consistent Calculation

     iteration #  1     ecut=    70.00 Ry     beta= 0.70
     Davidson diagonalization with overlap
     ethr =  1.00E-02,  avg # of iterations =  4.5

     negative rho (up, down):  1.453E-04 1.031E-02

     total cpu time spent up to now is      275.6 secs

     total energy              =    -724.10642268 Ry
     Harris-Foulkes estimate   =    -735.88218077 Ry
     estimated scf accuracy    <      18.59905286 Ry

     total magnetization       =     7.00 Bohr mag/cell
     absolute magnetization    =     7.64 Bohr mag/cell

     iteration #  2     ecut=    70.00 Ry     beta= 0.70
     Davidson diagonalization with overlap
     ethr =  8.90E-03,  avg # of iterations =  3.5

     negative rho (up, down):  1.344E-04 9.852E-03

     total cpu time spent up to now is      459.4 secs

     total energy              =    -724.93079366 Ry
     Harris-Foulkes estimate   =    -753.49002294 Ry
     estimated scf accuracy    <      82.65237515 Ry

     total magnetization       =     3.00 Bohr mag/cell
     absolute magnetization    =     3.13 Bohr mag/cell

     iteration #  3     ecut=    70.00 Ry     beta= 0.70
     Davidson diagonalization with overlap
     ethr =  8.90E-03,  avg # of iterations =  4.0

     negative rho (up, down):  1.642E-04 9.467E-03

     total cpu time spent up to now is      607.5 secs

     total energy              =    -732.91645234 Ry
     Harris-Foulkes estimate   =    -738.48370492 Ry
     estimated scf accuracy    <      17.38564271 Ry

     total magnetization       =     3.00 Bohr mag/cell
     absolute magnetization    =     3.13 Bohr mag/cell

     iteration #  4     ecut=    70.00 Ry     beta= 0.70
     Davidson diagonalization with overlap
     ethr =  8.32E-03,  avg # of iterations =  3.0

     negative rho (up, down):  1.922E-04 7.637E-03

     total cpu time spent up to now is      736.6 secs

     total energy              =    -734.56721606 Ry
     Harris-Foulkes estimate   =    -736.02989417 Ry
     estimated scf accuracy    <       5.97222667 Ry

     total magnetization       =     3.00 Bohr mag/cell
     absolute magnetization    =     3.12 Bohr mag/cell

     iteration #  5     ecut=    70.00 Ry     beta= 0.70
     Davidson diagonalization with overlap
     ethr =  2.86E-03,  avg # of iterations =  2.0

     negative rho (up, down):  2.287E-04 6.891E-03

     total cpu time spent up to now is      869.3 secs

     total energy              =    -735.31332558 Ry
     Harris-Foulkes estimate   =    -735.66289199 Ry
     estimated scf accuracy    <       1.14498677 Ry

     total magnetization       =     1.00 Bohr mag/cell
     absolute magnetization    =     1.38 Bohr mag/cell

     iteration #  6     ecut=    70.00 Ry     beta= 0.70
     Davidson diagonalization with overlap
     ethr =  5.48E-04,  avg # of iterations =  4.5

     negative rho (up, down):  2.577E-04 9.056E-03

     total cpu time spent up to now is      992.3 secs

     total energy              =    -735.33506282 Ry
     Harris-Foulkes estimate   =    -735.64502996 Ry
     estimated scf accuracy    <       0.95363213 Ry

     total magnetization       =     1.00 Bohr mag/cell
     absolute magnetization    =     1.34 Bohr mag/cell

     iteration #  7     ecut=    70.00 Ry     beta= 0.70
     Davidson diagonalization with overlap
     ethr =  4.56E-04,  avg # of iterations =  3.0

     negative rho (up, down):  4.003E-04 9.162E-03

     total cpu time spent up to now is     1104.6 secs

     total energy              =    -735.51539759 Ry
     Harris-Foulkes estimate   =    -735.58167916 Ry
     estimated scf accuracy    <       0.23902185 Ry

     total magnetization       =     1.00 Bohr mag/cell
     absolute magnetization    =     1.22 Bohr mag/cell

     iteration #  8     ecut=    70.00 Ry     beta= 0.70
     Davidson diagonalization with overlap
     ethr =  1.14E-04,  avg # of iterations =  4.0

     negative rho (up, down):  5.454E-04 4.728E-03

     total cpu time spent up to now is     1221.9 secs

     total energy              =    -735.53805196 Ry
     Harris-Foulkes estimate   =    -735.57119760 Ry
     estimated scf accuracy    <       0.11890633 Ry

     total magnetization       =     1.00 Bohr mag/cell
     absolute magnetization    =     1.12 Bohr mag/cell

     iteration #  9     ecut=    70.00 Ry     beta= 0.70
     Davidson diagonalization with overlap
     ethr =  5.69E-05,  avg # of iterations =  4.0

     negative rho (up, down):  5.716E-04 5.060E-03

     total cpu time spent up to now is     1335.3 secs

     total energy              =    -735.55075695 Ry
     Harris-Foulkes estimate   =    -735.55574199 Ry
     estimated scf accuracy    <       0.02188960 Ry

     total magnetization       =     1.00 Bohr mag/cell
     absolute magnetization    =     1.11 Bohr mag/cell

     iteration # 10     ecut=    70.00 Ry     beta= 0.70
     Davidson diagonalization with overlap
     ethr =  1.05E-05,  avg # of iterations =  4.0

     negative rho (up, down):  5.506E-04 3.928E-03

     total cpu time spent up to now is     1455.5 secs

     total energy              =    -735.55423433 Ry
     Harris-Foulkes estimate   =    -735.55449241 Ry
     estimated scf accuracy    <       0.00441045 Ry

     total magnetization       =     1.00 Bohr mag/cell
     absolute magnetization    =     1.11 Bohr mag/cell

     iteration # 11     ecut=    70.00 Ry     beta= 0.70
     Davidson diagonalization with overlap
     ethr =  2.11E-06,  avg # of iterations =  3.0

     negative rho (up, down):  5.300E-04 4.154E-03

     total cpu time spent up to now is     1573.4 secs

     total energy              =    -735.55489369 Ry
     Harris-Foulkes estimate   =    -735.55483107 Ry
     estimated scf accuracy    <       0.00058659 Ry

     total magnetization       =     1.00 Bohr mag/cell
     absolute magnetization    =     1.11 Bohr mag/cell

     iteration # 12     ecut=    70.00 Ry     beta= 0.70
     Davidson diagonalization with overlap
     ethr =  2.81E-07,  avg # of iterations =  3.0

     negative rho (up, down):  5.244E-04 4.275E-03

     total cpu time spent up to now is     1709.5 secs

     total energy              =    -735.55519277 Ry
     Harris-Foulkes estimate   =    -735.55526572 Ry
     estimated scf accuracy    <       0.00041516 Ry

     total magnetization       =     1.00 Bohr mag/cell
     absolute magnetization    =     1.12 Bohr mag/cell

     iteration # 13     ecut=    70.00 Ry     beta= 0.70
     Davidson diagonalization with overlap
     ethr =  1.99E-07,  avg # of iterations =  2.0

     negative rho (up, down):  5.203E-04 4.464E-03

     total cpu time spent up to now is     1825.5 secs

     total energy              =    -735.55527589 Ry
     Harris-Foulkes estimate   =    -735.55526883 Ry
     estimated scf accuracy    <       0.00002561 Ry

     total magnetization       =     1.00 Bohr mag/cell
     absolute magnetization    =     1.12 Bohr mag/cell

     iteration # 14     ecut=    70.00 Ry     beta= 0.70
     Davidson diagonalization with overlap
     ethr =  1.23E-08,  avg # of iterations =  3.0

     negative rho (up, down):  5.204E-04 4.430E-03

     total cpu time spent up to now is     1948.3 secs

     total energy              =    -735.55528969 Ry
     Harris-Foulkes estimate   =    -735.55528634 Ry
     estimated scf accuracy    <       0.00000718 Ry

     total magnetization       =     1.00 Bohr mag/cell
     absolute magnetization    =     1.13 Bohr mag/cell

     iteration # 15     ecut=    70.00 Ry     beta= 0.70
     Davidson diagonalization with overlap
     ethr =  3.43E-09,  avg # of iterations =  3.0

     negative rho (up, down):  5.205E-04 4.421E-03

     total cpu time spent up to now is     2084.4 secs

     total energy              =    -735.55529383 Ry
     Harris-Foulkes estimate   =    -735.55529361 Ry
     estimated scf accuracy    <       0.00000407 Ry

     total magnetization       =     1.00 Bohr mag/cell
     absolute magnetization    =     1.13 Bohr mag/cell

     iteration # 16     ecut=    70.00 Ry     beta= 0.70
     Davidson diagonalization with overlap
     ethr =  1.95E-09,  avg # of iterations =  3.0

     negative rho (up, down):  5.206E-04 4.412E-03

     total cpu time spent up to now is     2214.5 secs

     total energy              =    -735.55529537 Ry
     Harris-Foulkes estimate   =    -735.55529520 Ry
     estimated scf accuracy    <       0.00000111 Ry

     total magnetization       =     1.00 Bohr mag/cell
     absolute magnetization    =     1.13 Bohr mag/cell

     iteration # 17     ecut=    70.00 Ry     beta= 0.70
     Davidson diagonalization with overlap
     ethr =  5.31E-10,  avg # of iterations =  3.0

     negative rho (up, down):  5.209E-04 4.387E-03

     total cpu time spent up to now is     2354.7 secs

     total energy              =    -735.55529591 Ry
     Harris-Foulkes estimate   =    -735.55529589 Ry
     estimated scf accuracy    <       0.00000031 Ry

     total magnetization       =     1.00 Bohr mag/cell
     absolute magnetization    =     1.13 Bohr mag/cell

     iteration # 18     ecut=    70.00 Ry     beta= 0.70
     Davidson diagonalization with overlap
     ethr =  1.48E-10,  avg # of iterations =  3.0

     negative rho (up, down):  5.210E-04 4.380E-03

     total cpu time spent up to now is     2496.4 secs

     total energy              =    -735.55529600 Ry
     Harris-Foulkes estimate   =    -735.55529609 Ry
     estimated scf accuracy    <       0.00000040 Ry

     total magnetization       =     1.00 Bohr mag/cell
     absolute magnetization    =     1.13 Bohr mag/cell

     iteration # 19     ecut=    70.00 Ry     beta= 0.70
     Davidson diagonalization with overlap
     ethr =  1.48E-10,  avg # of iterations =  3.0

     negative rho (up, down):  5.210E-04 4.380E-03

     total cpu time spent up to now is     2620.4 secs

     total energy              =    -735.55529610 Ry
     Harris-Foulkes estimate   =    -735.55529609 Ry
     estimated scf accuracy    <       0.00000003 Ry

     total magnetization       =     1.00 Bohr mag/cell
     absolute magnetization    =     1.13 Bohr mag/cell

     iteration # 20     ecut=    70.00 Ry     beta= 0.70
     Davidson diagonalization with overlap
     ethr =  1.27E-11,  avg # of iterations =  3.0

     negative rho (up, down):  5.210E-04 4.381E-03

     total cpu time spent up to now is     2769.7 secs

     total energy              =    -735.55529612 Ry
     Harris-Foulkes estimate   =    -735.55529612 Ry
     estimated scf accuracy    <       0.00000002 Ry

     total magnetization       =     1.00 Bohr mag/cell
     absolute magnetization    =     1.13 Bohr mag/cell

     iteration # 21     ecut=    70.00 Ry     beta= 0.70
     Davidson diagonalization with overlap
     ethr =  1.06E-11,  avg # of iterations =  3.0

     negative rho (up, down):  5.210E-04 4.383E-03

     total cpu time spent up to now is     2895.6 secs

     total energy              =    -735.55529612 Ry
     Harris-Foulkes estimate   =    -735.55529612 Ry
     estimated scf accuracy    <          8.7E-09 Ry

     total magnetization       =     1.00 Bohr mag/cell
     absolute magnetization    =     1.13 Bohr mag/cell

     iteration # 22     ecut=    70.00 Ry     beta= 0.70
     Davidson diagonalization with overlap
     ethr =  4.17E-12,  avg # of iterations =  2.5

     negative rho (up, down):  5.210E-04 4.382E-03

     total cpu time spent up to now is     3018.9 secs

     total energy              =    -735.55529613 Ry
     Harris-Foulkes estimate   =    -735.55529612 Ry
     estimated scf accuracy    <          7.1E-09 Ry

     total magnetization       =     1.00 Bohr mag/cell
     absolute magnetization    =     1.13 Bohr mag/cell

     iteration # 23     ecut=    70.00 Ry     beta= 0.70
     Davidson diagonalization with overlap
     ethr =  3.38E-12,  avg # of iterations =  3.0

     negative rho (up, down):  5.210E-04 4.382E-03

     total cpu time spent up to now is     3150.6 secs

     total energy              =    -735.55529613 Ry
     Harris-Foulkes estimate   =    -735.55529613 Ry
     estimated scf accuracy    <          1.4E-09 Ry

     total magnetization       =     1.00 Bohr mag/cell
     absolute magnetization    =     1.13 Bohr mag/cell

     iteration # 24     ecut=    70.00 Ry     beta= 0.70
     Davidson diagonalization with overlap
     ethr =  6.82E-13,  avg # of iterations =  3.0

     negative rho (up, down):  5.210E-04 4.381E-03

     total cpu time spent up to now is     3289.9 secs

     total energy              =    -735.55529613 Ry
     Harris-Foulkes estimate   =    -735.55529613 Ry
     estimated scf accuracy    <          3.9E-10 Ry

     total magnetization       =     1.00 Bohr mag/cell
     absolute magnetization    =     1.13 Bohr mag/cell

     iteration # 25     ecut=    70.00 Ry     beta= 0.70
     Davidson diagonalization with overlap
     ethr =  1.87E-13,  avg # of iterations =  3.0

     negative rho (up, down):  5.210E-04 4.381E-03

     total cpu time spent up to now is     3441.1 secs

     total energy              =    -735.55529613 Ry
     Harris-Foulkes estimate   =    -735.55529613 Ry
     estimated scf accuracy    <          2.1E-10 Ry

     total magnetization       =     1.00 Bohr mag/cell
     absolute magnetization    =     1.13 Bohr mag/cell

     iteration # 26     ecut=    70.00 Ry     beta= 0.70
     Davidson diagonalization with overlap
     ethr =  1.00E-13,  avg # of iterations =  3.0

     negative rho (up, down):  5.210E-04 4.381E-03

     Magnetic moment per site:
     atom:    1    charge:    0.2169    magn:   -0.0006    constr:    0.0000
     atom:    2    charge:    0.2094    magn:    0.0028    constr:    0.0000
     atom:    3    charge:    1.6164    magn:    0.0019    constr:    0.0000
     atom:    4    charge:    1.6165    magn:    0.0003    constr:    0.0000
     atom:    5    charge:    1.6241    magn:    0.0019    constr:    0.0000
     atom:    6    charge:    1.6215    magn:   -0.0011    constr:    0.0000
     atom:    7    charge:    1.6260    magn:    0.0007    constr:    0.0000
     atom:    8    charge:    1.6303    magn:    0.0022    constr:    0.0000
     atom:    9    charge:    1.6309    magn:    0.0013    constr:    0.0000
     atom:   10    charge:    1.6269    magn:    0.0009    constr:    0.0000
     atom:   11    charge:    1.6244    magn:    0.0003    constr:    0.0000
     atom:   12    charge:    1.6255    magn:    0.0041    constr:    0.0000
     atom:   13    charge:    1.6244    magn:    0.0003    constr:    0.0000
     atom:   14    charge:    1.6247    magn:   -0.0006    constr:    0.0000
     atom:   15    charge:    1.6089    magn:    0.0005    constr:    0.0000
     atom:   16    charge:    1.5995    magn:    0.0006    constr:    0.0000
     atom:   17    charge:    1.6221    magn:    0.0086    constr:    0.0000
     atom:   18    charge:    1.6296    magn:    0.0064    constr:    0.0000
     atom:   19    charge:    1.6287    magn:    0.0113    constr:    0.0000
     atom:   20    charge:    1.6281    magn:    0.0034    constr:    0.0000
     atom:   21    charge:    1.6299    magn:   -0.0005    constr:    0.0000
     atom:   22    charge:    1.6269    magn:    0.0009    constr:    0.0000
     atom:   23    charge:    1.6309    magn:    0.0013    constr:    0.0000
     atom:   24    charge:    1.6321    magn:    0.0002    constr:    0.0000
     atom:   25    charge:    1.6283    magn:    0.0032    constr:    0.0000
     atom:   26    charge:    1.6371    magn:    0.0036    constr:    0.0000
     atom:   27    charge:    1.5602    magn:    0.0252    constr:    0.0000
     atom:   28    charge:    8.4261    magn:    0.1483    constr:    0.0000
     atom:   29    charge:    1.5943    magn:    0.1683    constr:    0.0000
     atom:   30    charge:    1.6296    magn:    0.0064    constr:    0.0000
     atom:   31    charge:    1.6287    magn:    0.0113    constr:    0.0000
     atom:   32    charge:    1.6303    magn:    0.0022    constr:    0.0000
     atom:   33    charge:    1.6260    magn:    0.0007    constr:    0.0000
     atom:   34    charge:    1.6293    magn:   -0.0008    constr:    0.0000
     atom:   35    charge:    1.6311    magn:    0.0028    constr:    0.0000
     atom:   36    charge:    1.6368    magn:   -0.0016    constr:    0.0000
     atom:   37    charge:    1.6400    magn:    0.0076    constr:    0.0000
     atom:   38    charge:    1.6371    magn:    0.0036    constr:    0.0000
     atom:   39    charge:    1.5602    magn:    0.0252    constr:    0.0000
     atom:   40    charge:    1.5995    magn:    0.0006    constr:    0.0000
     atom:   41    charge:    1.6221    magn:    0.0086    constr:    0.0000
     atom:   42    charge:    1.6215    magn:   -0.0011    constr:    0.0000
     atom:   43    charge:    1.6241    magn:    0.0019    constr:    0.0000
     atom:   44    charge:    1.6213    magn:    0.0010    constr:    0.0000
     atom:   45    charge:    1.6307    magn:    0.0064    constr:    0.0000
     atom:   46    charge:    1.6293    magn:   -0.0008    constr:    0.0000
     atom:   47    charge:    1.6311    magn:    0.0028    constr:    0.0000
     atom:   48    charge:    1.6321    magn:    0.0002    constr:    0.0000
     atom:   49    charge:    1.6283    magn:    0.0032    constr:    0.0000
     atom:   50    charge:    1.6247    magn:   -0.0006    constr:    0.0000
     atom:   51    charge:    1.6089    magn:    0.0005    constr:    0.0000
     atom:   52    charge:    1.6165    magn:    0.0003    constr:    0.0000

     total cpu time spent up to now is     3580.5 secs

     End of self-consistent calculation

 ------ SPIN UP ------------


          k = 0.0000 0.0000 0.0000 ( 87777 PWs)   bands (ev):

   -19.7159 -18.8983 -18.8944 -18.8164 -18.7841 -18.7819 -18.3828 -17.0535
   -17.0350 -17.0174 -16.9406 -16.9139 -16.6058 -16.1637 -16.1342 -16.1023
   -16.0212 -15.9976 -15.2517 -14.0194 -13.9911 -13.9660 -13.9377 -13.8792
   -13.3848 -13.0043 -12.9645 -12.9525 -12.7457 -12.6779 -12.2238 -11.6544
   -11.6424 -11.6388 -11.3615 -11.3485 -10.4212  -9.3534  -9.3162  -9.2688
    -9.2288  -9.2118  -9.1804  -9.1545  -9.1158  -9.0881  -8.7277  -8.7179
    -8.1189  -7.9977  -7.8639  -7.7900  -7.7627  -7.7444  -7.4462  -7.4209
    -7.2669  -6.8924  -6.8611  -6.8214  -6.7757  -6.7398  -6.6397  -6.5845
    -6.5767  -6.5684  -6.5443  -6.4817  -6.4667  -6.4572  -6.4518  -6.3705
    -5.8910  -5.8682  -5.2554  -5.2322  -5.1068  -5.0090  -4.9419  -4.8603
    -4.8006  -4.7012  -4.6658  -4.6191  -4.6056  -4.5576  -4.5164  -4.2497
    -4.2312  -3.9857  -3.7416  -3.7362  -3.7349  -3.6559  -3.5823  -3.5480
    -3.4988  -2.7147  -1.7904  -1.7779  -1.7452  -1.7079  -1.6977  -0.9330
    -0.5792  -0.0380   0.9645   0.9930   1.0352   1.0859   1.1027   1.2221
     2.1288   2.5408   2.6975   2.7893   2.8782   2.9075   2.9424   3.4677
     3.6102   3.7203   3.7262   3.7629   3.8671   3.8822

     occupation numbers 
     1.0000   1.0000   1.0000   1.0000   1.0000   1.0000   1.0000   1.0000
     1.0000   1.0000   1.0000   1.0000   1.0000   1.0000   1.0000   1.0000
     1.0000   1.0000   1.0000   1.0000   1.0000   1.0000   1.0000   1.0000
     1.0000   1.0000   1.0000   1.0000   1.0000   1.0000   1.0000   1.0000
     1.0000   1.0000   1.0000   1.0000   1.0000   1.0000   1.0000   1.0000
     1.0000   1.0000   1.0000   1.0000   1.0000   1.0000   1.0000   1.0000
     1.0000   1.0000   1.0000   1.0000   1.0000   1.0000   1.0000   1.0000
     1.0000   1.0000   1.0000   1.0000   1.0000   1.0000   1.0000   1.0000
     1.0000   1.0000   1.0000   1.0000   1.0000   1.0000   1.0000   1.0000
     1.0000   1.0000   1.0000   1.0000   1.0000   1.0000   1.0000   1.0000
     1.0000   1.0000   1.0000   1.0000   1.0000   1.0000   1.0000   1.0000
     1.0000   1.0000   1.0000   1.0000   1.0000   1.0000   1.0000   1.0000
     1.0000   1.0000   1.0000   1.0000   1.0000   1.0000   1.0000   1.0000
     1.0000   0.0000   0.0000   0.0000   0.0000   0.0000   0.0000   0.0000
     0.0000   0.0000   0.0000   0.0000   0.0000   0.0000   0.0000   0.0000
     0.0000   0.0000   0.0000   0.0000   0.0000   0.0000

 ------ SPIN DOWN ----------


          k = 0.0000 0.0000 0.0000 ( 87777 PWs)   bands (ev):

   -19.7036 -18.8882 -18.8658 -18.8096 -18.7791 -18.7720 -18.3360 -17.0423
   -17.0109 -17.0077 -16.9092 -16.9052 -16.5910 -16.1471 -16.1099 -16.0939
   -15.9860 -15.9839 -15.2021 -14.0044 -13.9818 -13.9549 -13.9247 -13.8274
   -13.3534 -12.9923 -12.9568 -12.9346 -12.7095 -12.6679 -12.1917 -11.6448
   -11.6236 -11.6220 -11.3343 -11.3073 -10.3537  -9.3390  -9.3012  -9.2584
    -9.2066  -9.1966  -9.1707  -9.1385  -9.1055  -9.0719  -8.7126  -8.6637
    -8.0625  -7.9743  -7.8516  -7.7688  -7.7394  -7.7210  -7.4287  -7.3815
    -7.2156  -6.8814  -6.8355  -6.8061  -6.7658  -6.7293  -6.6178  -6.5693
    -6.5534  -6.5520  -6.5366  -6.4763  -6.4595  -6.4297  -6.4279  -6.3426
    -5.8098  -5.7543  -5.1850  -5.1287  -4.9971  -4.9949  -4.9300  -4.8365
    -4.7947  -4.6601  -4.6531  -4.5986  -4.5510  -4.4791  -4.4135  -4.1650
    -4.1571  -3.9204  -3.7196  -3.7188  -3.7171  -3.6265  -3.5409  -3.5043
    -3.4792  -2.6553  -1.7695  -1.7632  -1.7390  -1.6810  -1.6555  -0.8592
     0.0003   0.0856   0.9745   1.0448   1.0555   1.1087   1.1912   1.3624
     2.1741   2.5550   2.7587   2.7956   2.9024   2.9194   2.9880   3.4741
     3.6325   3.7195   3.7290   3.7632   3.8740   3.9213

     occupation numbers 
     1.0000   1.0000   1.0000   1.0000   1.0000   1.0000   1.0000   1.0000
     1.0000   1.0000   1.0000   1.0000   1.0000   1.0000   1.0000   1.0000
     1.0000   1.0000   1.0000   1.0000   1.0000   1.0000   1.0000   1.0000
     1.0000   1.0000   1.0000   1.0000   1.0000   1.0000   1.0000   1.0000
     1.0000   1.0000   1.0000   1.0000   1.0000   1.0000   1.0000   1.0000
     1.0000   1.0000   1.0000   1.0000   1.0000   1.0000   1.0000   1.0000
     1.0000   1.0000   1.0000   1.0000   1.0000   1.0000   1.0000   1.0000
     1.0000   1.0000   1.0000   1.0000   1.0000   1.0000   1.0000   1.0000
     1.0000   1.0000   1.0000   1.0000   1.0000   1.0000   1.0000   1.0000
     1.0000   1.0000   1.0000   1.0000   1.0000   1.0000   1.0000   1.0000
     1.0000   1.0000   1.0000   1.0000   1.0000   1.0000   1.0000   1.0000
     1.0000   1.0000   1.0000   1.0000   1.0000   1.0000   1.0000   1.0000
     1.0000   1.0000   1.0000   1.0000   1.0000   1.0000   1.0000   1.0000
     0.0000   0.0000   0.0000   0.0000   0.0000   0.0000   0.0000   0.0000
     0.0000   0.0000   0.0000   0.0000   0.0000   0.0000   0.0000   0.0000
     0.0000   0.0000   0.0000   0.0000   0.0000   0.0000

     the Fermi energy is    -0.4937 ev

!    total energy              =    -735.55529613 Ry
     Harris-Foulkes estimate   =    -735.55529613 Ry
     estimated scf accuracy    <          6.9E-11 Ry

     The total energy is the sum of the following terms:

     one-electron contribution =   -2397.71958816 Ry
     hartree contribution      =    1256.77029540 Ry
     xc contribution           =    -275.25931589 Ry
     ewald contribution        =     680.65331252 Ry
     smearing contrib. (-TS)   =       0.00000000 Ry

     total magnetization       =     1.00 Bohr mag/cell
     absolute magnetization    =     1.13 Bohr mag/cell

     convergence has been achieved in  26 iterations

     negative rho (up, down):  5.210E-04 4.381E-03

     Forces acting on atoms (cartesian axes, Ry/au):

     atom    1 type  1   force =     0.00168042   -0.00097019   -0.00002274
     atom    2 type  1   force =    -0.00148867    0.00085948   -0.00010127
     atom    3 type  2   force =    -0.00015411    0.00008898    0.00078434
     atom    4 type  2   force =     0.00014572   -0.00659345    0.00025105
     atom    5 type  2   force =    -0.00370869    0.00098788   -0.00258855
     atom    6 type  2   force =    -0.00156587   -0.00000819    0.00404939
     atom    7 type  2   force =    -0.00288862    0.00304016    0.00124802
     atom    8 type  2   force =     0.00148469    0.00037675   -0.00206474
     atom    9 type  2   force =     0.00378587    0.00129697   -0.00537044
     atom   10 type  2   force =    -0.00212175    0.00312523   -0.00403647
     atom   11 type  2   force =    -0.00143373   -0.00329696   -0.00224967
     atom   12 type  2   force =     0.00241560   -0.00139465    0.00003421
     atom   13 type  2   force =     0.00213839    0.00289013   -0.00224967
     atom   14 type  2   force =    -0.00111942   -0.00211302   -0.00004917
     atom   15 type  2   force =    -0.00460139    0.00160526    0.00143463
     atom   16 type  2   force =    -0.00201255   -0.00259505    0.00091201
     atom   17 type  2   force =    -0.00244887    0.00182248    0.00605169
     atom   18 type  2   force =     0.00088410   -0.00107496    0.00882274
     atom   19 type  2   force =     0.00522959    0.00061288    0.00335410
     atom   20 type  2   force =     0.00093833   -0.00054175   -0.00035439
     atom   21 type  2   force =     0.00589975   -0.00340622   -0.00336889
     atom   22 type  2   force =    -0.00376740    0.00027487   -0.00403647
     atom   23 type  2   force =     0.00076972   -0.00392714   -0.00537044
     atom   24 type  2   force =     0.00590138   -0.00487366   -0.00120280
     atom   25 type  2   force =     0.00340016   -0.00187467    0.00285545
     atom   26 type  2   force =    -0.00192467   -0.00485993    0.00007493
     atom   27 type  2   force =    -0.00532212   -0.00308455   -0.00620034
     atom   28 type  3   force =     0.01115041   -0.00643769    0.00681487
     atom   29 type  2   force =    -0.00610724    0.00352602   -0.00294631
     atom   30 type  2   force =     0.00137299   -0.00022817    0.00882274
     atom   31 type  2   force =     0.00208403   -0.00483540    0.00335410
     atom   32 type  2   force =     0.00041607   -0.00147416   -0.00206474
     atom   33 type  2   force =    -0.00407716    0.00098154    0.00124802
     atom   34 type  2   force =     0.00150448    0.00230564   -0.00347915
     atom   35 type  2   force =     0.00016234    0.00423090   -0.00203064
     atom   36 type  2   force =    -0.00751581    0.00433926    0.00365578
     atom   37 type  2   force =    -0.01036598    0.00598480    0.00893047
     atom   38 type  2   force =     0.00324649    0.00409678    0.00007493
     atom   39 type  2   force =     0.00001024    0.00615136   -0.00620034
     atom   40 type  2   force =     0.00124110    0.00304044    0.00091201
     atom   41 type  2   force =    -0.00280274    0.00120954    0.00605169
     atom   42 type  2   force =    -0.00077584    0.00136017    0.00404939
     atom   43 type  2   force =    -0.00270988    0.00271788   -0.00258855
     atom   44 type  2   force =     0.00262106   -0.00151327   -0.00732307
     atom   45 type  2   force =     0.00139967   -0.00080810   -0.00566702
     atom   46 type  2   force =    -0.00124450   -0.00245574   -0.00347915
     atom   47 type  2   force =    -0.00358290   -0.00225604   -0.00203064
     atom   48 type  2   force =     0.00717141   -0.00267392   -0.00120280
     atom   49 type  2   force =     0.00332359   -0.00200729    0.00285545
     atom   50 type  2   force =     0.00127021    0.00202596   -0.00004917
     atom   51 type  2   force =    -0.00369089    0.00318229    0.00143463
     atom   52 type  2   force =     0.00578296    0.00317052    0.00025105
     The non-local contrib.  to forces
     atom    1 type  1   force =    -0.00081082    0.00046812    0.12131392
     atom    2 type  1   force =    -0.00737139    0.00425587   -0.12745902
     atom    3 type  2   force =    -0.00764683    0.00441490   -0.00214205
     atom    4 type  2   force =     0.02512295   -0.00842826    0.00140318
     atom    5 type  2   force =    -0.00045658    0.00776217   -0.00584142
     atom    6 type  2   force =    -0.00813720   -0.00177959   -0.00320680
     atom    7 type  2   force =     0.00339187    0.01250495   -0.00600784
     atom    8 type  2   force =     0.00583539    0.00012330   -0.00258342
     atom    9 type  2   force =     0.00589489    0.00952722   -0.00228049
     atom   10 type  2   force =     0.00138473   -0.00035231    0.00256520
     atom   11 type  2   force =    -0.01378764   -0.00454891   -0.00059390
     atom   12 type  2   force =     0.01178654   -0.00680496    0.00650218
     atom   13 type  2   force =    -0.00295435    0.01421491   -0.00059390
     atom   14 type  2   force =     0.00426367    0.00123013   -0.00434390
     atom   15 type  2   force =    -0.00427900    0.03481979   -0.00031816
     atom   16 type  2   force =     0.04412659    0.00571905    0.02787749
     atom   17 type  2   force =     0.02730001   -0.01187437   -0.00765286
     atom   18 type  2   force =    -0.01012895   -0.01034336    0.02424993
     atom   19 type  2   force =     0.02275060    0.00622800    0.01509624
     atom   20 type  2   force =     0.00897715   -0.00518296   -0.02731819
     atom   21 type  2   force =    -0.00069632    0.00040202   -0.00094722
     atom   22 type  2   force =     0.00099747   -0.00102306    0.00256520
     atom   23 type  2   force =    -0.00530337   -0.00986874   -0.00228049
     atom   24 type  2   force =    -0.00020837    0.00366069    0.00152955
     atom   25 type  2   force =    -0.00473106    0.02743543    0.00958548
     atom   26 type  2   force =    -0.01490049    0.00330253    0.02010083
     atom   27 type  2   force =    -0.03365306    0.08317405    0.01651253
     atom   28 type  3   force =     0.20544821   -0.11861558    0.54718281
     atom   29 type  2   force =    -0.12377867    0.07146365   -0.14920154
     atom   30 type  2   force =     0.00389314    0.01394361    0.02424993
     atom   31 type  2   force =     0.00598169   -0.02281660    0.01509624
     atom   32 type  2   force =     0.00281091   -0.00511524   -0.00258342
     atom   33 type  2   force =    -0.00913367   -0.00918992   -0.00600784
     atom   34 type  2   force =    -0.00797034    0.00054457   -0.00018706
     atom   35 type  2   force =    -0.01646762    0.01309859   -0.00186227
     atom   36 type  2   force =    -0.01342317    0.00774987   -0.00253271
     atom   37 type  2   force =    -0.03263651    0.01884270    0.03237100
     atom   38 type  2   force =    -0.01031033    0.01125294    0.02010083
     atom   39 type  2   force =    -0.08885737   -0.01244262    0.01651253
     atom   40 type  2   force =     0.01711046   -0.04107428    0.02787749
     atom   41 type  2   force =     0.02393351   -0.01770531   -0.00765286
     atom   42 type  2   force =    -0.00252743    0.00793682   -0.00320680
     atom   43 type  2   force =    -0.00695053   -0.00348567   -0.00584142
     atom   44 type  2   force =     0.02334946   -0.01348082   -0.00289297
     atom   45 type  2   force =    -0.00403527    0.00232976   -0.00091087
     atom   46 type  2   force =    -0.00445678    0.00663023   -0.00018706
     atom   47 type  2   force =    -0.01957752    0.00771208   -0.00186227
     atom   48 type  2   force =    -0.00327444   -0.00164989    0.00152955
     atom   49 type  2   force =    -0.02612531   -0.00962049    0.00958548
     atom   50 type  2   force =     0.00106651   -0.00430751   -0.00434390
     atom   51 type  2   force =    -0.03229432   -0.01370417   -0.00031816
     atom   52 type  2   force =     0.01986057   -0.01754298    0.00140318
     The ionic contribution  to forces
     atom    1 type  1   force =     0.68777661   -0.39708801    2.18723834
     atom    2 type  1   force =     0.37536898   -0.21671938    3.04361586
     atom    3 type  2   force =    -0.13497939    0.07793038   -0.25852884
     atom    4 type  2   force =    -0.04426156   -0.33047759   -0.49587340
     atom    5 type  2   force =    -0.25020634   -0.18390317   -0.20001138
     atom    6 type  2   force =    -0.37804317   -0.37933003   -1.00765306
     atom    7 type  2   force =    -0.11222417   -0.13763080   -0.37670868
     atom    8 type  2   force =    -0.32772058   -0.14234404   -0.74331580
     atom    9 type  2   force =     0.06164174    0.15772652    0.12977047
     atom   10 type  2   force =     0.00428754    0.07576994    0.45043646
     atom   11 type  2   force =     0.05996231    0.22035681    0.35208574
     atom   12 type  2   force =     0.02848784   -0.01644746    0.16716413
     atom   13 type  2   force =    -0.16085344   -0.16210728    0.35208574
     atom   14 type  2   force =    -0.14642921   -0.60822584   -0.31823168
     atom   15 type  2   force =    -0.44590156   -0.51776389   -0.89668290
     atom   16 type  2   force =    -0.78509947   -0.91670691   -1.95528329
     atom   17 type  2   force =    -0.63946372   -0.54172741   -1.89764256
     atom   18 type  2   force =    -1.00188273   -0.39661913   -2.15623497
     atom   19 type  2   force =    -0.63983267    0.14741205   -1.91167152
     atom   20 type  2   force =    -0.40075432    0.23137562   -1.00765718
     atom   21 type  2   force =    -0.26062485    0.15047183    0.19963357
     atom   22 type  2   force =    -0.06347492   -0.04159809    0.45043646
     atom   23 type  2   force =    -0.10577430   -0.13224657    0.12977047
     atom   24 type  2   force =     0.20002845   -0.29180563   -0.10365166
     atom   25 type  2   force =     0.04069570   -0.77403875   -0.75579211
     atom   26 type  2   force =     0.65030362   -1.05555094   -1.81641362
     atom   27 type  2   force =    -0.29328790   -0.60687946   -3.01728413
     atom   28 type  3   force =    -1.25935651    0.72708981   28.95220489
     atom   29 type  2   force =    -1.06172534    0.61298741    0.22531431
     atom   30 type  2   force =    -0.15745913    1.06596546   -2.15623497
     atom   31 type  2   force =    -0.44757892    0.48040532   -1.91167152
     atom   32 type  2   force =    -0.04058674    0.35498637   -0.74331580
     atom   33 type  2   force =     0.06307968    0.16600439   -0.37670868
     atom   34 type  2   force =     0.23656904   -0.03289406    0.52433956
     atom   35 type  2   force =     0.23617148   -0.30491488    0.03428121
     atom   36 type  2   force =     0.67560460   -0.39006050   -0.62721022
     atom   37 type  2   force =     0.82235585   -0.47478737   -1.86177970
     atom   38 type  2   force =     1.23928574   -0.03540399   -1.81641362
     atom   39 type  2   force =     0.37892908    0.55743450   -3.01728413
     atom   40 type  2   force =     0.40134174    1.13826954   -1.95528329
     atom   41 type  2   force =     0.14941784    0.82465554   -1.89764256
     atom   42 type  2   force =     0.13948785    0.51706000   -1.00765306
     atom   43 type  2   force =     0.03416165    0.30863664   -0.20001138
     atom   44 type  2   force =     0.09626807   -0.05558040    0.48061799
     atom   45 type  2   force =     0.06092223   -0.03517347    0.82246152
     atom   46 type  2   force =     0.14677161   -0.18842777    0.52433956
     atom   47 type  2   force =     0.38214976   -0.05207306    0.03428121
     atom   48 type  2   force =     0.35272531   -0.02732690   -0.10365166
     atom   49 type  2   force =     0.69068508    0.35177588   -0.75579211
     atom   50 type  2   force =     0.45352444    0.43092433   -0.31823168
     atom   51 type  2   force =     0.22544590    0.64504403   -0.89668290
     atom   52 type  2   force =     0.26407122    0.20357043   -0.49587340
     The local contribution  to forces
     atom    1 type  1   force =    -0.68528264    0.39564811   -2.30857096
     atom    2 type  1   force =    -0.36948353    0.21332141   -2.91625418
     atom    3 type  2   force =     0.14215688   -0.08207432    0.26141203
     atom    4 type  2   force =     0.01984108    0.33205498    0.49469208
     atom    5 type  2   force =     0.24684262    0.17734131    0.20315144
     atom    6 type  2   force =     0.38437073    0.38095571    1.01487657
     atom    7 type  2   force =     0.10605428    0.12847145    0.38377772
     atom    8 type  2   force =     0.32344229    0.14238007    0.74382121
     atom    9 type  2   force =    -0.06361361   -0.16565788   -0.13283721
     atom   10 type  2   force =    -0.00769849   -0.07243504   -0.45701989
     atom   11 type  2   force =    -0.04794100   -0.21912283   -0.35379044
     atom   12 type  2   force =    -0.03752267    0.02166372   -0.17352783
     atom   13 type  2   force =     0.16579544    0.15107954   -0.35379044
     atom   14 type  2   force =     0.14111658    0.60486767    0.32250474
     atom   15 type  2   force =     0.44545837    0.48528078    0.89834789
     atom   16 type  2   force =     0.73977002    0.90835007    1.92876019
     atom   17 type  2   force =     0.61040085    0.55512341    1.91121485
     atom   18 type  2   force =     1.01239204    0.40555095    2.14112994
     atom   19 type  2   force =     0.62286494   -0.15286063    1.90016933
     atom   20 type  2   force =     0.39295848   -0.22687468    1.03405891
     atom   21 type  2   force =     0.26708871   -0.15420373   -0.20201039
     atom   22 type  2   force =     0.05888134    0.04288461   -0.45701989
     atom   23 type  2   force =     0.11165712    0.13791994   -0.13283721
     atom   24 type  2   force =    -0.19387742    0.28335427    0.10100448
     atom   25 type  2   force =    -0.03273744    0.74531510    0.74927506
     atom   26 type  2   force =    -0.63732951    1.04719900    1.79675334
     atom   27 type  2   force =     0.32063432    0.52282740    2.99534987
     atom   28 type  3   force =     1.07643185   -0.62147833  -29.43182178
     atom   29 type  2   force =     1.17974126   -0.68112393   -0.08246134
     atom   30 type  2   force =     0.15497859   -1.07953271    2.14112994
     atom   31 type  2   force =     0.44381366   -0.46298655    1.90016933
     atom   32 type  2   force =     0.03841638   -0.35129928    0.74382121
     atom   33 type  2   force =    -0.05823241   -0.15608143    0.38377772
     atom   34 type  2   force =    -0.22705709    0.03470193   -0.52763683
     atom   35 type  2   force =    -0.22002427    0.29623127   -0.03449734
     atom   36 type  2   force =    -0.66991986    0.38677841    0.63337360
     atom   37 type  2   force =    -0.80075434    0.46231573    1.83893172
     atom   38 type  2   force =    -1.22556569    0.02834403    1.79675334
     atom   39 type  2   force =    -0.29246465   -0.53909117    2.99534987
     atom   40 type  2   force =    -0.41676922   -1.09483467    1.92876019
     atom   41 type  2   force =    -0.17555055   -0.80618435    1.91121485
     atom   42 type  2   force =    -0.13773197   -0.52335267    1.01487657
     atom   43 type  2   force =    -0.03016077   -0.30244264    0.20315144
     atom   44 type  2   force =    -0.11646520    0.06724121   -0.48514897
     atom   45 type  2   force =    -0.05569293    0.03215432   -0.82714781
     atom   46 type  2   force =    -0.14358130    0.17928624   -0.52763683
     atom   47 type  2   force =    -0.36655594    0.04243097   -0.03449734
     atom   48 type  2   force =    -0.34233071    0.02622563    0.10100448
     atom   49 type  2   force =    -0.66183054   -0.34430609    0.74927506
     atom   50 type  2   force =    -0.45327247   -0.42464439    0.32250474
     atom   51 type  2   force =    -0.19753630   -0.62841865    0.89834789
     atom   52 type  2   force =    -0.27764751   -0.18321038    0.49469208
     The core correction contribution to forces
     atom    1 type  1   force =     0.00000000    0.00000000    0.00000000
     atom    2 type  1   force =     0.00000000    0.00000000    0.00000000
     atom    3 type  2   force =     0.00031527   -0.00018202    0.00004691
     atom    4 type  2   force =    -0.00055757    0.00025623    0.00003296
     atom    5 type  2   force =     0.00011185   -0.00021465    0.00011656
     atom    6 type  2   force =     0.00024317    0.00014259    0.00003651
     atom    7 type  2   force =    -0.00010932   -0.00030824    0.00019058
     atom    8 type  2   force =    -0.00007026    0.00021346    0.00001702
     atom    9 type  2   force =    -0.00013274   -0.00030246   -0.00001950
     atom   10 type  2   force =    -0.00009206    0.00013977   -0.00001449
     atom   11 type  2   force =     0.00033522    0.00001608    0.00005268
     atom   12 type  2   force =    -0.00033441    0.00019307   -0.00010054
     atom   13 type  2   force =     0.00015369   -0.00029835    0.00005268
     atom   14 type  2   force =    -0.00006795    0.00001301    0.00002552
     atom   15 type  2   force =     0.00012136   -0.00073406    0.00009164
     atom   16 type  2   force =    -0.00080965    0.00003931   -0.00043847
     atom   17 type  2   force =    -0.00068682    0.00029762    0.00013604
     atom   18 type  2   force =     0.00050240    0.00033402   -0.00031869
     atom   19 type  2   force =    -0.00055307   -0.00016883   -0.00023627
     atom   20 type  2   force =    -0.00024052    0.00013887    0.00056568
     atom   21 type  2   force =     0.00013609   -0.00007857   -0.00004120
     atom   22 type  2   force =    -0.00016708    0.00000984   -0.00001449
     atom   23 type  2   force =     0.00019556    0.00026618   -0.00001950
     atom   24 type  2   force =    -0.00003577   -0.00008530   -0.00008135
     atom   25 type  2   force =     0.00017642   -0.00058996   -0.00020906
     atom   26 type  2   force =     0.00000602    0.00018567   -0.00036156
     atom   27 type  2   force =     0.00098596   -0.00220980   -0.00077426
     atom   28 type  3   force =    -0.01137011    0.00656452   -0.06073627
     atom   29 type  2   force =    -0.00034444    0.00019886    0.00340657
     atom   30 type  2   force =    -0.00003807   -0.00060211   -0.00031869
     atom   31 type  2   force =    -0.00013032    0.00056339   -0.00023627
     atom   32 type  2   force =    -0.00022000   -0.00004588    0.00001702
     atom   33 type  2   force =     0.00021228    0.00024880    0.00019058
     atom   34 type  2   force =    -0.00003278   -0.00004837    0.00000883
     atom   35 type  2   force =     0.00048901   -0.00018643    0.00005158
     atom   36 type  2   force =     0.00022875   -0.00013207    0.00002903
     atom   37 type  2   force =     0.00067550   -0.00039000   -0.00058854
     atom   38 type  2   force =    -0.00015778   -0.00009805   -0.00036156
     atom   39 type  2   force =     0.00240672    0.00025103   -0.00077426
     atom   40 type  2   force =    -0.00043887    0.00068152   -0.00043847
     atom   41 type  2   force =    -0.00060116    0.00044599    0.00013604
     atom   42 type  2   force =    -0.00000190   -0.00028189    0.00003651
     atom   43 type  2   force =     0.00024182    0.00001046    0.00011656
     atom   44 type  2   force =    -0.00052953    0.00030572    0.00010450
     atom   45 type  2   force =     0.00020855   -0.00012041   -0.00006626
     atom   46 type  2   force =     0.00002550    0.00005257    0.00000883
     atom   47 type  2   force =     0.00040596   -0.00033028    0.00005158
     atom   48 type  2   force =     0.00005599    0.00007363   -0.00008135
     atom   49 type  2   force =     0.00059914    0.00014219   -0.00020906
     atom   50 type  2   force =    -0.00004525    0.00005234    0.00002552
     atom   51 type  2   force =     0.00069640    0.00026193    0.00009164
     atom   52 type  2   force =    -0.00050069    0.00035476    0.00003296
     The Hubbard contrib.    to forces
     atom    1 type  1   force =     0.00000000    0.00000000    0.00000000
     atom    2 type  1   force =     0.00000000    0.00000000    0.00000000
     atom    3 type  2   force =     0.00000000    0.00000000    0.00000000
     atom    4 type  2   force =     0.00000000    0.00000000    0.00000000
     atom    5 type  2   force =     0.00000000    0.00000000    0.00000000
     atom    6 type  2   force =     0.00000000    0.00000000    0.00000000
     atom    7 type  2   force =     0.00000000    0.00000000    0.00000000
     atom    8 type  2   force =     0.00000000    0.00000000    0.00000000
     atom    9 type  2   force =     0.00000000    0.00000000    0.00000000
     atom   10 type  2   force =     0.00000000    0.00000000    0.00000000
     atom   11 type  2   force =     0.00000000    0.00000000    0.00000000
     atom   12 type  2   force =     0.00000000    0.00000000    0.00000000
     atom   13 type  2   force =     0.00000000    0.00000000    0.00000000
     atom   14 type  2   force =     0.00000000    0.00000000    0.00000000
     atom   15 type  2   force =     0.00000000    0.00000000    0.00000000
     atom   16 type  2   force =     0.00000000    0.00000000    0.00000000
     atom   17 type  2   force =     0.00000000    0.00000000    0.00000000
     atom   18 type  2   force =     0.00000000    0.00000000    0.00000000
     atom   19 type  2   force =     0.00000000    0.00000000    0.00000000
     atom   20 type  2   force =     0.00000000    0.00000000    0.00000000
     atom   21 type  2   force =     0.00000000    0.00000000    0.00000000
     atom   22 type  2   force =     0.00000000    0.00000000    0.00000000
     atom   23 type  2   force =     0.00000000    0.00000000    0.00000000
     atom   24 type  2   force =     0.00000000    0.00000000    0.00000000
     atom   25 type  2   force =     0.00000000    0.00000000    0.00000000
     atom   26 type  2   force =     0.00000000    0.00000000    0.00000000
     atom   27 type  2   force =     0.00000000    0.00000000    0.00000000
     atom   28 type  3   force =     0.00000000    0.00000000    0.00000000
     atom   29 type  2   force =     0.00000000    0.00000000    0.00000000
     atom   30 type  2   force =     0.00000000    0.00000000    0.00000000
     atom   31 type  2   force =     0.00000000    0.00000000    0.00000000
     atom   32 type  2   force =     0.00000000    0.00000000    0.00000000
     atom   33 type  2   force =     0.00000000    0.00000000    0.00000000
     atom   34 type  2   force =     0.00000000    0.00000000    0.00000000
     atom   35 type  2   force =     0.00000000    0.00000000    0.00000000
     atom   36 type  2   force =     0.00000000    0.00000000    0.00000000
     atom   37 type  2   force =     0.00000000    0.00000000    0.00000000
     atom   38 type  2   force =     0.00000000    0.00000000    0.00000000
     atom   39 type  2   force =     0.00000000    0.00000000    0.00000000
     atom   40 type  2   force =     0.00000000    0.00000000    0.00000000
     atom   41 type  2   force =     0.00000000    0.00000000    0.00000000
     atom   42 type  2   force =     0.00000000    0.00000000    0.00000000
     atom   43 type  2   force =     0.00000000    0.00000000    0.00000000
     atom   44 type  2   force =     0.00000000    0.00000000    0.00000000
     atom   45 type  2   force =     0.00000000    0.00000000    0.00000000
     atom   46 type  2   force =     0.00000000    0.00000000    0.00000000
     atom   47 type  2   force =     0.00000000    0.00000000    0.00000000
     atom   48 type  2   force =     0.00000000    0.00000000    0.00000000
     atom   49 type  2   force =     0.00000000    0.00000000    0.00000000
     atom   50 type  2   force =     0.00000000    0.00000000    0.00000000
     atom   51 type  2   force =     0.00000000    0.00000000    0.00000000
     atom   52 type  2   force =     0.00000000    0.00000000    0.00000000
     The SCF correction term to forces
     atom    1 type  1   force =    -0.00000006    0.00000004   -0.00000024
     atom    2 type  1   force =    -0.00000005    0.00000003   -0.00000012
     atom    3 type  2   force =     0.00000263   -0.00000152    0.00000009
     atom    4 type  2   force =     0.00000350   -0.00000035    0.00000004
     atom    5 type  2   force =     0.00000243    0.00000068    0.00000005
     atom    6 type  2   force =     0.00000329    0.00000157   -0.00000003
     atom    7 type  2   force =     0.00000141    0.00000125    0.00000005
     atom    8 type  2   force =     0.00000054    0.00000240    0.00000006
     atom    9 type  2   force =    -0.00000174    0.00000203    0.00000011
     atom   10 type  2   force =    -0.00000079    0.00000132    0.00000007
     atom   11 type  2   force =     0.00000007    0.00000036    0.00000005
     atom   12 type  2   force =     0.00000100   -0.00000057    0.00000007
     atom   13 type  2   force =    -0.00000028   -0.00000024    0.00000005
     atom   14 type  2   force =     0.00000015    0.00000046   -0.00000003
     atom   15 type  2   force =     0.00000212    0.00000109   -0.00000004
     atom   16 type  2   force =     0.00000263    0.00000189   -0.00000011
     atom   17 type  2   force =     0.00000350    0.00000168    0.00000003
     atom   18 type  2   force =     0.00000401    0.00000101    0.00000033
     atom   19 type  2   force =     0.00000247    0.00000074    0.00000012
     atom   20 type  2   force =     0.00000022   -0.00000013    0.00000019
     atom   21 type  2   force =    -0.00000119    0.00000069    0.00000016
     atom   22 type  2   force =    -0.00000153    0.00000003    0.00000007
     atom   23 type  2   force =    -0.00000262    0.00000049    0.00000011
     atom   24 type  2   force =    -0.00000282    0.00000076   -0.00000002
     atom   25 type  2   force =    -0.00000077    0.00000197   -0.00000011
     atom   26 type  2   force =    -0.00000164    0.00000226   -0.00000026
     atom   27 type  2   force =     0.00000124    0.00000171   -0.00000054
     atom   28 type  3   force =    -0.00000041    0.00000024   -0.00001097
     atom   29 type  2   force =     0.00000263   -0.00000152   -0.00000051
     atom   30 type  2   force =     0.00000113   -0.00000398    0.00000033
     atom   31 type  2   force =     0.00000059   -0.00000251    0.00000012
     atom   32 type  2   force =    -0.00000181   -0.00000167    0.00000006
     atom   33 type  2   force =    -0.00000037   -0.00000185    0.00000005
     atom   34 type  2   force =    -0.00000168    0.00000002    0.00000015
     atom   35 type  2   force =    -0.00000359    0.00000081   -0.00000001
     atom   36 type  2   force =    -0.00000346    0.00000200   -0.00000012
     atom   37 type  2   force =    -0.00000380    0.00000219   -0.00000021
     atom   38 type  2   force =    -0.00000278    0.00000029   -0.00000026
     atom   39 type  2   force =    -0.00000086   -0.00000193   -0.00000054
     atom   40 type  2   force =    -0.00000032   -0.00000322   -0.00000011
     atom   41 type  2   force =     0.00000029   -0.00000387    0.00000003
     atom   42 type  2   force =     0.00000029   -0.00000363   -0.00000003
     atom   43 type  2   force =     0.00000063   -0.00000245    0.00000005
     atom   44 type  2   force =     0.00000093   -0.00000054    0.00000018
     atom   45 type  2   force =    -0.00000024    0.00000014    0.00000021
     atom   46 type  2   force =    -0.00000085    0.00000144    0.00000015
     atom   47 type  2   force =    -0.00000249    0.00000270   -0.00000001
     atom   48 type  2   force =    -0.00000207    0.00000206   -0.00000002
     atom   49 type  2   force =    -0.00000209   -0.00000032   -0.00000011
     atom   50 type  2   force =    -0.00000033   -0.00000036   -0.00000003
     atom   51 type  2   force =     0.00000011   -0.00000238   -0.00000004
     atom   52 type  2   force =     0.00000206   -0.00000285    0.00000004

     Total force =     0.045088     Total SCF correction =     0.000022

     BFGS Geometry Optimization

     number of scf cycles    =   1
     number of bfgs steps    =   0

     energy   new            =    -735.5552961287 Ry

     new trust radius        =       0.0149340055 bohr
     new conv_thr            =            1.0E-10 Ry


ATOMIC_POSITIONS (angstrom)
H        3.693448712   4.984286835   2.785109400
H        3.728826935   4.963861209   3.543624866
C       -0.004026099   0.002324470  -0.034166627
C        0.008736484   1.433931740  -0.052753768
C       -1.224832008   2.137941947  -0.038909842
C       -1.216774540   3.564449415  -0.087787150
C       -2.455992915   4.270936017  -0.050238978
C       -2.486555937   5.694340742  -0.083703265
C       -3.709727519   6.408224139  -0.011626302
C       -3.716668387   7.833301953   0.019743166
C       -4.944413943   8.541961213   0.021262787
C       -4.938787709   9.968110857   0.009070939
C        2.456724370   0.011007475   0.021262787
C        2.469917023   1.434679310  -0.018177272
C        1.246166749   2.158861161  -0.056109898
C        1.258830952   3.604730328  -0.050730302
C        0.002514589   4.292405597  -0.097885772
C       -0.046914024   5.718366047  -0.061945451
C       -1.275911307   6.424893417  -0.143414892
C       -1.268980049   7.849346416  -0.106444493
C       -2.488938513   8.553689763  -0.008909253
C       -2.478929305   9.977128929   0.019743166
C        4.921938093   0.008606203  -0.011626302
C        4.943217492   1.423217332  -0.007799490
C        3.713687311   2.129056189  -0.028335080
C        3.746105593   3.549278217  -0.026089274
C        2.533429200   4.226958420   0.074607592
Cu       2.443716829   5.705819875   1.280961512
C        1.069493140   6.499228291   0.240006294
C        1.187536099   7.856496379  -0.061945451
C       -0.038833194   8.567575562  -0.143414892
C       -0.011478333   9.981300904  -0.083703265
C        7.399751205  -0.008515753  -0.050238978
C        7.415066458   1.408155268   0.027062243
C        6.186465006   2.115010797   0.003872495
C        6.205010386   3.534236027  -0.027440590
C        4.987815796   4.236983651  -0.058338610
C        4.962531070   5.656188949  -0.026089274
C        3.769304602   6.367557409   0.074607592
C        3.670870813   7.782505917  -0.050730302
C        2.447168379   8.526670169  -0.097885772
C        2.467952362   9.946583620  -0.087787150
C        9.862558708  -0.008235339  -0.038909842
C        9.872770186   1.416653919   0.013865034
C        8.644065405   2.126046955   0.052415336
C        8.651278370   3.549337108   0.027062243
C        7.424822799   4.259909412   0.003872495
C        7.402309757   5.682490075  -0.007799490
C        6.176270285   6.394375017  -0.028335080
C        6.155733157   7.818700124  -0.018177272
C        4.916698141   8.516408022  -0.056109898
C        4.925790303   9.950518778  -0.052753768



     Writing output data file cobre-sixhollow-2.8.save/
     NEW-OLD atomic charge density approx. for the potential

     Check: negative core charge=   -0.000002

     negative rho (up, down):  5.224E-04 1.596E-03

     total cpu time spent up to now is     3678.0 secs

     Self-consistent Calculation

     iteration #  1     ecut=    70.00 Ry     beta= 0.70
     Davidson diagonalization with overlap
     ethr =  1.00E-06,  avg # of iterations =  4.0

     negative rho (up, down):  5.216E-04 4.629E-03

     total cpu time spent up to now is     3862.3 secs

     total energy              =    -735.55665479 Ry
     Harris-Foulkes estimate   =    -735.55681639 Ry
     estimated scf accuracy    <       0.00030051 Ry

     total magnetization       =     1.00 Bohr mag/cell
     absolute magnetization    =     1.13 Bohr mag/cell

     iteration #  2     ecut=    70.00 Ry     beta= 0.70
     Davidson diagonalization with overlap
     ethr =  1.44E-07,  avg # of iterations =  3.0

     negative rho (up, down):  5.214E-04 4.544E-03

     total cpu time spent up to now is     4007.8 secs

     total energy              =    -735.55649013 Ry
     Harris-Foulkes estimate   =    -735.55677145 Ry
     estimated scf accuracy    <       0.00067264 Ry

     total magnetization       =     1.00 Bohr mag/cell
     absolute magnetization    =     1.13 Bohr mag/cell

     iteration #  3     ecut=    70.00 Ry     beta= 0.70
     Davidson diagonalization with overlap
     ethr =  1.44E-07,  avg # of iterations =  3.0

     negative rho (up, down):  5.212E-04 4.483E-03

     total cpu time spent up to now is     4133.2 secs

     total energy              =    -735.55668299 Ry
     Harris-Foulkes estimate   =    -735.55682266 Ry
     estimated scf accuracy    <       0.00054279 Ry

     total magnetization       =     1.00 Bohr mag/cell
     absolute magnetization    =     1.13 Bohr mag/cell

     iteration #  4     ecut=    70.00 Ry     beta= 0.70
     Davidson diagonalization with overlap
     ethr =  1.44E-07,  avg # of iterations =  2.0

     negative rho (up, down):  5.212E-04 4.481E-03

     total cpu time spent up to now is     4252.4 secs

     total energy              =    -735.55674796 Ry
     Harris-Foulkes estimate   =    -735.55676004 Ry
     estimated scf accuracy    <       0.00002835 Ry

     total magnetization       =     1.00 Bohr mag/cell
     absolute magnetization    =     1.13 Bohr mag/cell

     iteration #  5     ecut=    70.00 Ry     beta= 0.70
     Davidson diagonalization with overlap
     ethr =  1.36E-08,  avg # of iterations =  3.0

     negative rho (up, down):  5.213E-04 4.460E-03

     total cpu time spent up to now is     4380.3 secs

     total energy              =    -735.55675286 Ry
     Harris-Foulkes estimate   =    -735.55675864 Ry
     estimated scf accuracy    <       0.00001696 Ry

     total magnetization       =     1.00 Bohr mag/cell
     absolute magnetization    =     1.13 Bohr mag/cell

     iteration #  6     ecut=    70.00 Ry     beta= 0.70
     Davidson diagonalization with overlap
     ethr =  8.12E-09,  avg # of iterations =  2.0

     negative rho (up, down):  5.213E-04 4.456E-03

     total cpu time spent up to now is     4498.7 secs

     total energy              =    -735.55675572 Ry
     Harris-Foulkes estimate   =    -735.55675593 Ry
     estimated scf accuracy    <       0.00000057 Ry

     total magnetization       =     1.00 Bohr mag/cell
     absolute magnetization    =     1.13 Bohr mag/cell

     iteration #  7     ecut=    70.00 Ry     beta= 0.70
     Davidson diagonalization with overlap
     ethr =  2.72E-10,  avg # of iterations =  3.0

     negative rho (up, down):  5.213E-04 4.462E-03

     total cpu time spent up to now is     4627.0 secs

     total energy              =    -735.55675590 Ry
     Harris-Foulkes estimate   =    -735.55675597 Ry
     estimated scf accuracy    <       0.00000019 Ry

     total magnetization       =     1.00 Bohr mag/cell
     absolute magnetization    =     1.13 Bohr mag/cell

     iteration #  8     ecut=    70.00 Ry     beta= 0.70
     Davidson diagonalization with overlap
     ethr =  9.07E-11,  avg # of iterations =  3.0

     negative rho (up, down):  5.213E-04 4.464E-03

     total cpu time spent up to now is     4738.9 secs

     total energy              =    -735.55675594 Ry
     Harris-Foulkes estimate   =    -735.55675596 Ry
     estimated scf accuracy    <       0.00000008 Ry

     total magnetization       =     1.00 Bohr mag/cell
     absolute magnetization    =     1.13 Bohr mag/cell

     iteration #  9     ecut=    70.00 Ry     beta= 0.70
     Davidson diagonalization with overlap
     ethr =  3.66E-11,  avg # of iterations =  2.0

     negative rho (up, down):  5.213E-04 4.464E-03

     total cpu time spent up to now is     4842.7 secs

     total energy              =    -735.55675596 Ry
     Harris-Foulkes estimate   =    -735.55675596 Ry
     estimated scf accuracy    <          9.2E-09 Ry

     total magnetization       =     1.00 Bohr mag/cell
     absolute magnetization    =     1.13 Bohr mag/cell

     iteration # 10     ecut=    70.00 Ry     beta= 0.70
     Davidson diagonalization with overlap
     ethr =  4.40E-12,  avg # of iterations =  3.0

     negative rho (up, down):  5.213E-04 4.466E-03

     total cpu time spent up to now is     4959.5 secs

     total energy              =    -735.55675596 Ry
     Harris-Foulkes estimate   =    -735.55675596 Ry
     estimated scf accuracy    <          2.3E-09 Ry

     total magnetization       =     1.00 Bohr mag/cell
     absolute magnetization    =     1.13 Bohr mag/cell

     iteration # 11     ecut=    70.00 Ry     beta= 0.70
     Davidson diagonalization with overlap
     ethr =  1.10E-12,  avg # of iterations =  3.0

     negative rho (up, down):  5.213E-04 4.465E-03

     total cpu time spent up to now is     5077.8 secs

     total energy              =    -735.55675596 Ry
     Harris-Foulkes estimate   =    -735.55675596 Ry
     estimated scf accuracy    <          5.3E-10 Ry

     total magnetization       =     1.00 Bohr mag/cell
     absolute magnetization    =     1.13 Bohr mag/cell

     iteration # 12     ecut=    70.00 Ry     beta= 0.70
     Davidson diagonalization with overlap
     ethr =  2.51E-13,  avg # of iterations =  3.0

     negative rho (up, down):  5.213E-04 4.465E-03

     total cpu time spent up to now is     5207.0 secs

     total energy              =    -735.55675596 Ry
     Harris-Foulkes estimate   =    -735.55675596 Ry
     estimated scf accuracy    <          1.9E-10 Ry

     total magnetization       =     1.00 Bohr mag/cell
     absolute magnetization    =     1.13 Bohr mag/cell

     iteration # 13     ecut=    70.00 Ry     beta= 0.70
     Davidson diagonalization with overlap
     ethr =  1.00E-13,  avg # of iterations =  3.0

     negative rho (up, down):  5.213E-04 4.465E-03

     total cpu time spent up to now is     5337.0 secs

     total energy              =    -735.55675596 Ry
     Harris-Foulkes estimate   =    -735.55675596 Ry
     estimated scf accuracy    <          1.2E-10 Ry

     total magnetization       =     1.00 Bohr mag/cell
     absolute magnetization    =     1.13 Bohr mag/cell

     iteration # 14     ecut=    70.00 Ry     beta= 0.70
     Davidson diagonalization with overlap
     ethr =  1.00E-13,  avg # of iterations =  3.0

     negative rho (up, down):  5.213E-04 4.465E-03

     Magnetic moment per site:
     atom:    1    charge:    0.2170    magn:   -0.0006    constr:    0.0000
     atom:    2    charge:    0.2093    magn:    0.0028    constr:    0.0000
     atom:    3    charge:    1.6187    magn:    0.0019    constr:    0.0000
     atom:    4    charge:    1.6164    magn:    0.0003    constr:    0.0000
     atom:    5    charge:    1.6238    magn:    0.0019    constr:    0.0000
     atom:    6    charge:    1.6210    magn:   -0.0012    constr:    0.0000
     atom:    7    charge:    1.6258    magn:    0.0008    constr:    0.0000
     atom:    8    charge:    1.6306    magn:    0.0022    constr:    0.0000
     atom:    9    charge:    1.6311    magn:    0.0014    constr:    0.0000
     atom:   10    charge:    1.6265    magn:    0.0008    constr:    0.0000
[...]
     atom   27 type  2   force =     0.77351494   -0.23074483    3.47240079
     atom   28 type  3   force =    -0.77275133    0.44614808  -28.11821478
     atom   29 type  2   force =     1.97094892   -1.13792789   -4.39778095
     atom   30 type  2   force =     0.22093042   -1.18598904   -1.01643815
     atom   31 type  2   force =     0.27618296   -0.40927943    0.59279014
     atom   32 type  2   force =     0.00146477   -0.19606040    0.95595184
     atom   33 type  2   force =    -0.10943012   -0.15763087    0.34581527
     atom   34 type  2   force =    -0.26040924    0.05819886    0.60774489
     atom   35 type  2   force =    -0.26792749    0.25813947    1.02614229
     atom   36 type  2   force =    -0.69900261    0.40356934    1.32355637
     atom   37 type  2   force =    -0.71552452    0.41310827    1.90742973
     atom   38 type  2   force =    -1.14800869   -0.06786717    2.18189230
     atom   39 type  2   force =     0.58658836   -0.55451118    3.47240079
     atom   40 type  2   force =    -0.21614496   -1.20925272    1.12772167
     atom   41 type  2   force =    -0.10732880   -0.83851220   -0.41408913
     atom   42 type  2   force =    -0.16021881   -0.44428886    0.11573470
     atom   43 type  2   force =     0.03409866   -0.24839488    0.30158340
     atom   44 type  2   force =    -0.09806081    0.05661544    0.38634798
     atom   45 type  2   force =    -0.07657896    0.04421288    0.36214842
     atom   46 type  2   force =    -0.18060631    0.19642158    0.60774489
     atom   47 type  2   force =    -0.35751909    0.10296228    1.02614229
     atom   48 type  2   force =    -0.35302355   -0.01076778    1.15141570
     atom   49 type  2   force =    -0.62587643   -0.30897126    1.34045769
     atom   50 type  2   force =    -0.35713497   -0.47288147    0.93539346
     atom   51 type  2   force =    -0.07008880   -0.57877618    0.72274586
     atom   52 type  2   force =    -0.23518986   -0.17908241    0.26345495
     The core correction contribution to forces
     atom    1 type  1   force =     0.00000000    0.00000000    0.00000000
     atom    2 type  1   force =     0.00000000    0.00000000    0.00000000
     atom    3 type  2   force =     0.00032803   -0.00018939   -0.00002129
     atom    4 type  2   force =    -0.00048672    0.00022711    0.00006073
     atom    5 type  2   force =     0.00013851   -0.00032265   -0.00010742
     atom    6 type  2   force =     0.00019049    0.00036048   -0.00009546
     atom    7 type  2   force =    -0.00013739   -0.00006572    0.00025749
     atom    8 type  2   force =     0.00010876    0.00007073   -0.00003892
     atom    9 type  2   force =     0.00008160   -0.00009515    0.00006132
     atom   10 type  2   force =     0.00001462    0.00006751    0.00018427
     atom   11 type  2   force =     0.00029248    0.00004529    0.00003451
     atom   12 type  2   force =    -0.00010171    0.00005872    0.00025932
     atom   13 type  2   force =     0.00010702   -0.00027594    0.00003451
     atom   14 type  2   force =     0.00006029    0.00006368    0.00022941
     atom   15 type  2   force =    -0.00004595   -0.00083245   -0.00016145
     atom   16 type  2   force =    -0.00072330    0.00023202   -0.00031786
     atom   17 type  2   force =    -0.00082356    0.00063307    0.00064664
     atom   18 type  2   force =     0.00091152    0.00100204   -0.00008337
     atom   19 type  2   force =     0.00030961   -0.00014049   -0.00042833
     atom   20 type  2   force =    -0.00016057    0.00009271    0.00049212
     atom   21 type  2   force =     0.00020978   -0.00012111    0.00022014
     atom   22 type  2   force =    -0.00005115   -0.00004642    0.00018427
     atom   23 type  2   force =     0.00012320   -0.00002309    0.00006132
     atom   24 type  2   force =     0.00009487   -0.00019063    0.00009628
     atom   25 type  2   force =     0.00018355   -0.00073122   -0.00007138
     atom   26 type  2   force =    -0.00055247    0.00012780   -0.00013002
     atom   27 type  2   force =     0.00076721   -0.00219837   -0.00141074
     atom   28 type  3   force =    -0.01929055    0.01113739   -0.03116323
     atom   29 type  2   force =     0.00394609   -0.00227827    0.00424231
     atom   30 type  2   force =    -0.00041203   -0.00129042   -0.00008337
     atom   31 type  2   force =     0.00027647   -0.00019789   -0.00042833
     atom   32 type  2   force =    -0.00000688   -0.00012955   -0.00003892
     atom   33 type  2   force =    -0.00001178    0.00015185    0.00025749
     atom   34 type  2   force =    -0.00014306   -0.00004516    0.00000146
     atom   35 type  2   force =     0.00035912   -0.00021124    0.00015275
     atom   36 type  2   force =    -0.00022410    0.00012939    0.00007123
     atom   37 type  2   force =     0.00037450   -0.00021622   -0.00020825
     atom   38 type  2   force =    -0.00038692    0.00041455   -0.00013002
     atom   39 type  2   force =     0.00228745    0.00043476   -0.00141074
     atom   40 type  2   force =    -0.00056259    0.00051039   -0.00031786
     atom   41 type  2   force =    -0.00096003    0.00039668    0.00064664
     atom   42 type  2   force =    -0.00021694   -0.00034521   -0.00009546
     atom   43 type  2   force =     0.00034868    0.00004137   -0.00010742
     atom   44 type  2   force =    -0.00035995    0.00020782    0.00001305
     atom   45 type  2   force =     0.00022946   -0.00013248    0.00014978
     atom   46 type  2   force =    -0.00003242    0.00014647    0.00000146
     atom   47 type  2   force =     0.00036250   -0.00020539    0.00015275
     atom   48 type  2   force =     0.00021252    0.00001316    0.00009628
     atom   49 type  2   force =     0.00072503    0.00020665   -0.00007138
     atom   50 type  2   force =    -0.00002500   -0.00008405    0.00022941
     atom   51 type  2   force =     0.00069795    0.00045602   -0.00016145
     atom   52 type  2   force =    -0.00044004    0.00030796    0.00006073
     The Hubbard contrib.    to forces
     atom    1 type  1   force =     0.00000000    0.00000000    0.00000000
     atom    2 type  1   force =     0.00000000    0.00000000    0.00000000
     atom    3 type  2   force =     0.00000000    0.00000000    0.00000000
     atom    4 type  2   force =     0.00000000    0.00000000    0.00000000
     atom    5 type  2   force =     0.00000000    0.00000000    0.00000000
     atom    6 type  2   force =     0.00000000    0.00000000    0.00000000
     atom    7 type  2   force =     0.00000000    0.00000000    0.00000000
     atom    8 type  2   force =     0.00000000    0.00000000    0.00000000
     atom    9 type  2   force =     0.00000000    0.00000000    0.00000000
     atom   10 type  2   force =     0.00000000    0.00000000    0.00000000
     atom   11 type  2   force =     0.00000000    0.00000000    0.00000000
     atom   12 type  2   force =     0.00000000    0.00000000    0.00000000
     atom   13 type  2   force =     0.00000000    0.00000000    0.00000000
     atom   14 type  2   force =     0.00000000    0.00000000    0.00000000
     atom   15 type  2   force =     0.00000000    0.00000000    0.00000000
     atom   16 type  2   force =     0.00000000    0.00000000    0.00000000
     atom   17 type  2   force =     0.00000000    0.00000000    0.00000000
     atom   18 type  2   force =     0.00000000    0.00000000    0.00000000
     atom   19 type  2   force =     0.00000000    0.00000000    0.00000000
     atom   20 type  2   force =     0.00000000    0.00000000    0.00000000
     atom   21 type  2   force =     0.00000000    0.00000000    0.00000000
     atom   22 type  2   force =     0.00000000    0.00000000    0.00000000
     atom   23 type  2   force =     0.00000000    0.00000000    0.00000000
     atom   24 type  2   force =     0.00000000    0.00000000    0.00000000
     atom   25 type  2   force =     0.00000000    0.00000000    0.00000000
     atom   26 type  2   force =     0.00000000    0.00000000    0.00000000
     atom   27 type  2   force =     0.00000000    0.00000000    0.00000000
     atom   28 type  3   force =     0.00000000    0.00000000    0.00000000
     atom   29 type  2   force =     0.00000000    0.00000000    0.00000000
     atom   30 type  2   force =     0.00000000    0.00000000    0.00000000
     atom   31 type  2   force =     0.00000000    0.00000000    0.00000000
     atom   32 type  2   force =     0.00000000    0.00000000    0.00000000
     atom   33 type  2   force =     0.00000000    0.00000000    0.00000000
     atom   34 type  2   force =     0.00000000    0.00000000    0.00000000
     atom   35 type  2   force =     0.00000000    0.00000000    0.00000000
     atom   36 type  2   force =     0.00000000    0.00000000    0.00000000
     atom   37 type  2   force =     0.00000000    0.00000000    0.00000000
     atom   38 type  2   force =     0.00000000    0.00000000    0.00000000
     atom   39 type  2   force =     0.00000000    0.00000000    0.00000000
     atom   40 type  2   force =     0.00000000    0.00000000    0.00000000
     atom   41 type  2   force =     0.00000000    0.00000000    0.00000000
     atom   42 type  2   force =     0.00000000    0.00000000    0.00000000
     atom   43 type  2   force =     0.00000000    0.00000000    0.00000000
     atom   44 type  2   force =     0.00000000    0.00000000    0.00000000
     atom   45 type  2   force =     0.00000000    0.00000000    0.00000000
     atom   46 type  2   force =     0.00000000    0.00000000    0.00000000
     atom   47 type  2   force =     0.00000000    0.00000000    0.00000000
     atom   48 type  2   force =     0.00000000    0.00000000    0.00000000
     atom   49 type  2   force =     0.00000000    0.00000000    0.00000000
     atom   50 type  2   force =     0.00000000    0.00000000    0.00000000
     atom   51 type  2   force =     0.00000000    0.00000000    0.00000000
     atom   52 type  2   force =     0.00000000    0.00000000    0.00000000
     The SCF correction term to forces
     atom    1 type  1   force =     0.00000004   -0.00000002    0.00000003
     atom    2 type  1   force =     0.00000002   -0.00000001    0.00000005
     atom    3 type  2   force =    -0.00000005    0.00000003   -0.00000003
     atom    4 type  2   force =    -0.00000005    0.00000008   -0.00000003
     atom    5 type  2   force =     0.00000000    0.00000002   -0.00000002
     atom    6 type  2   force =     0.00000003   -0.00000009   -0.00000003
     atom    7 type  2   force =    -0.00000003   -0.00000015   -0.00000003
     atom    8 type  2   force =    -0.00000009   -0.00000019   -0.00000004
     atom    9 type  2   force =    -0.00000011   -0.00000011   -0.00000004
     atom   10 type  2   force =    -0.00000009    0.00000002   -0.00000003
     atom   11 type  2   force =    -0.00000011    0.00000004   -0.00000003
     atom   12 type  2   force =    -0.00000005    0.00000003   -0.00000004
     atom   13 type  2   force =    -0.00000009    0.00000007   -0.00000003
     atom   14 type  2   force =    -0.00000007   -0.00000002   -0.00000005
     atom   15 type  2   force =    -0.00000010   -0.00000003   -0.00000005
     atom   16 type  2   force =    -0.00000025   -0.00000016   -0.00000010
     atom   17 type  2   force =    -0.00000009   -0.00000016   -0.00000008
     atom   18 type  2   force =    -0.00000005   -0.00000020   -0.00000009
     atom   19 type  2   force =    -0.00000000   -0.00000013   -0.00000003
     atom   20 type  2   force =    -0.00000005    0.00000003   -0.00000003
     atom   21 type  2   force =    -0.00000007    0.00000004   -0.00000003
     atom   22 type  2   force =    -0.00000006    0.00000007   -0.00000003
     atom   23 type  2   force =     0.00000005    0.00000015   -0.00000004
     atom   24 type  2   force =     0.00000011    0.00000006   -0.00000005
     atom   25 type  2   force =     0.00000002   -0.00000010   -0.00000007
     atom   26 type  2   force =     0.00000009   -0.00000019   -0.00000013
     atom   27 type  2   force =    -0.00000015   -0.00000023   -0.00000023
     atom   28 type  3   force =    -0.00000010    0.00000006    0.00000006
     atom   29 type  2   force =    -0.00000018    0.00000010   -0.00000017
     atom   30 type  2   force =     0.00000015    0.00000014   -0.00000009
     atom   31 type  2   force =     0.00000011    0.00000006   -0.00000003
     atom   32 type  2   force =     0.00000012    0.00000017   -0.00000004
     atom   33 type  2   force =     0.00000012    0.00000010   -0.00000003
     atom   34 type  2   force =     0.00000004    0.00000008   -0.00000003
     atom   35 type  2   force =     0.00000010    0.00000004   -0.00000005
     atom   36 type  2   force =     0.00000017   -0.00000010   -0.00000006
     atom   37 type  2   force =     0.00000024   -0.00000014   -0.00000011
     atom   38 type  2   force =     0.00000021    0.00000002   -0.00000013
     atom   39 type  2   force =     0.00000012    0.00000024   -0.00000023
     atom   40 type  2   force =     0.00000001    0.00000029   -0.00000010
     atom   41 type  2   force =     0.00000009    0.00000016   -0.00000008
     atom   42 type  2   force =     0.00000009    0.00000002   -0.00000003
     atom   43 type  2   force =    -0.00000001   -0.00000001   -0.00000002
     atom   44 type  2   force =    -0.00000002    0.00000001   -0.00000002
     atom   45 type  2   force =    -0.00000003    0.00000002   -0.00000003
     atom   46 type  2   force =    -0.00000005   -0.00000007   -0.00000003
     atom   47 type  2   force =     0.00000002   -0.00000011   -0.00000005
     atom   48 type  2   force =     0.00000001   -0.00000013   -0.00000005
     atom   49 type  2   force =     0.00000010    0.00000003   -0.00000007
     atom   50 type  2   force =    -0.00000002    0.00000008   -0.00000005
     atom   51 type  2   force =    -0.00000003    0.00000010   -0.00000005
     atom   52 type  2   force =    -0.00000010    0.00000001   -0.00000003

     Total force =     0.002657     Total SCF correction =     0.000001

     bfgs converged in  44 scf cycles and  43 bfgs steps
     (criteria: energy <  1.0E-04 Ry, force <  1.0E-03 Ry/Bohr)

     End of BFGS Geometry Optimization

     Final energy   =    -735.5955712085 Ry
Begin final coordinates

ATOMIC_POSITIONS (angstrom)
H        3.744687785   4.954703943   2.670239403
H        3.174678924   5.283798712   3.133265727
C        0.004088861  -0.002360704  -0.069673401
C        0.015752350   1.432778841  -0.032984833
C       -1.215821743   2.137465596  -0.018518814
C       -1.207249807   3.569902466   0.047023717
C       -2.448350795   4.270758657  -0.038778994
C       -2.461762436   5.693753068  -0.070883455
C       -3.689850715   6.404483315  -0.155671911
C       -3.702884761   7.828482185  -0.159058930
C       -4.934699398   8.538218592  -0.153083455
C       -4.929760641   9.962899077  -0.127442586
C        2.464822848   0.004465743  -0.153083455
C        2.474786148   1.432693634  -0.114933705
C        1.252816127   2.159941475  -0.028586869
C        1.265861696   3.610075500   0.103114376
C        0.006228652   4.298777476   0.211522344
C       -0.039373959   5.730564919   0.364812396
C       -1.249687818   6.418726072   0.069547276
C       -1.252275296   7.839701922   0.009634184
C       -2.474186988   8.545172967  -0.121506580
C       -2.467863451   9.967601842  -0.159058930
C        4.935116144  -0.006737202  -0.155671911
C        4.950932890   1.412090656  -0.171250209
C        3.719541035   2.120222963  -0.137865740
C        3.740891593   3.543774898  -0.066600453
C        2.548005779   4.231291935   0.117093910
Cu       2.593854662   5.619137756   1.517071107
C        1.074798559   6.496165206   0.786815853
C        1.180741599   7.843867055   0.364812396
C       -0.020380372   8.547949027   0.069547276
C        0.001427358   9.960122939  -0.070883455
C        7.403725863  -0.015045343  -0.038778994
C        7.417105471   1.404786724  -0.109198740
C        6.189478206   2.112582110  -0.164803245
C        6.199347113   3.537505719  -0.172088340
C        4.985741965   4.238180978  -0.119133240
C        4.964690084   5.663456065  -0.066600453
C        3.772839957   6.352766964   0.117093910
C        3.669757130   7.773744528   0.103114376
C        2.443507201   8.520267756   0.211522344
C        2.467992248   9.935608434   0.047023717
C        9.867476373  -0.015800283  -0.018518814
C        9.879602901   1.412709049  -0.051049666
C        8.649040136   2.123174793  -0.086084888
C        8.655215120   3.549255543  -0.109198740
C        7.428432703   4.258514248  -0.164803245
C        7.415803439   5.681371682  -0.171250209
C        6.186846945   6.393722157  -0.137865740
C        6.159887365   7.815476176  -0.114933705
C        4.919087250   8.510109335  -0.028586869
C        4.930296676   9.945019309  -0.032984833
End final coordinates



     Writing output data file cobre-sixhollow-2.8.save/

     init_run     :     88.18s CPU     89.97s WALL (       1 calls)
     electrons    :  90071.07s CPU  91621.30s WALL (      44 calls)
     update_pot   :    885.90s CPU    905.47s WALL (      43 calls)
     forces       :   2615.79s CPU   2676.00s WALL (      44 calls)

     Called by init_run:
     wfcinit      :     56.74s CPU     57.15s WALL (       1 calls)
     wfcinit:atom :      0.05s CPU      0.10s WALL (       2 calls)
     wfcinit:wfcr :     56.30s CPU     56.59s WALL (       2 calls)
     potinit      :     13.30s CPU     13.88s WALL (       1 calls)
     hinit0       :      6.44s CPU      6.49s WALL (       1 calls)

     Called by electrons:
     c_bands      :  59631.92s CPU  59962.73s WALL (     790 calls)
     sum_band     :  17826.25s CPU  18323.37s WALL (     790 calls)
     v_of_rho     :   6310.72s CPU   6615.36s WALL (     827 calls)
     v_h          :     67.27s CPU     69.65s WALL (     827 calls)
     v_xc         :   6573.61s CPU   6895.47s WALL (     871 calls)
     newd         :   6422.89s CPU   6869.40s WALL (     827 calls)
     mix_rho      :    354.63s CPU    362.06s WALL (     790 calls)

     Called by c_bands:
     init_us_2    :    157.00s CPU    157.34s WALL (    3250 calls)
     cegterg      :  59201.59s CPU  59530.59s WALL (    1580 calls)

     Called by sum_band:
     sum_band:bec :      1.28s CPU      1.29s WALL (    1580 calls)
     addusdens    :  11129.29s CPU  11574.38s WALL (     790 calls)

     Called by *egterg:
     h_psi        :  29939.13s CPU  30167.80s WALL (    6020 calls)
     s_psi        :   9979.73s CPU   9986.40s WALL (    6020 calls)
     g_psi        :     33.32s CPU     33.43s WALL (    4438 calls)
     cdiaghg      :    435.14s CPU    435.44s WALL (    5918 calls)
     cegterg:over :   7859.30s CPU   7864.58s WALL (    4438 calls)
     cegterg:upda :   4942.12s CPU   4968.78s WALL (    4438 calls)
     cegterg:last :   3336.24s CPU   3338.04s WALL (    1630 calls)

     Called by h_psi:
     h_psi:pot    :  29903.93s CPU  30093.48s WALL (    6020 calls)
     h_psi:calbec :   9977.96s CPU   9984.53s WALL (    6020 calls)
     vloc_psi     :   9943.82s CPU  10121.14s WALL (    6020 calls)
     add_vuspsi   :   9982.04s CPU   9987.77s WALL (    6020 calls)

     General routines
     calbec       :  14857.57s CPU  14867.04s WALL (    7952 calls)
     fft          :   3804.15s CPU   3937.19s WALL (   64854 calls)
     ffts         :     65.03s CPU     67.09s WALL (    3234 calls)
     fftw         :  10376.35s CPU  10569.06s WALL ( 1192862 calls)
     interpolate  :    151.97s CPU    156.62s WALL (    1654 calls)

     Parallel routines
     fft_scatt_xy :   2645.42s CPU   2677.63s WALL ( 1260950 calls)
     fft_scatt_yz :   4530.79s CPU   4772.61s WALL ( 1260950 calls)

     PWSCF        :   1d 2h 6m CPU   1d 2h34m WALL


   This run was terminated on:  11: 6: 5  15Sep2022            

=------------------------------------------------------------------------------=
   JOB DONE.
=------------------------------------------------------------------------------=
