
     Program PWSCF v.6.4.1 starts on 25Jul2022 at 17:54:59 

     This program is part of the open-source Quantum ESPRESSO suite
     for quantum simulation of materials; please cite
         "P. Giannozzi et al., J. Phys.:Condens. Matter 21 395502 (2009);
         "P. Giannozzi et al., J. Phys.:Condens. Matter 29 465901 (2017);
          URL http://www.quantum-espresso.org", 
     in publications or presentations arising from this work. More details at
     http://www.quantum-espresso.org/quote

     Parallel version (MPI), running on     6 processors

     MPI processes distributed on     1 nodes
     R & G space division:  proc/nbgrp/npool/nimage =       6
     Reading input from distance-2.4.in

     Current dimensions of program PWSCF are:
     Max number of different atomic species (ntypx) = 10
     Max number of k-points (npk) =  40000
     Max angular momentum in pseudopotentials (lmaxx) =  3

     IMPORTANT: XC functional enforced from input :
     Exchange-correlation      = RVV10 ( 1  4 13  4 3 0)
     Any further DFT definition will be discarded
     Please, verify this is what you really want

               file H.pbe-rrkjus.UPF: wavefunction(s)  1S renormalized
               file Cu.pbe-dn-rrkjus_psl.1.0.0.UPF: wavefunction(s)  3D renormalized

     Subspace diagonalization in iterative solution of the eigenvalue problem:
     a serial algorithm will be used


     Parallelization info
     --------------------
     sticks:   dense  smooth     PW     G-vecs:    dense   smooth      PW
     Min        3051    1746    432               270999   117096   14629
     Max        3053    1747    437               271001   117099   14630
     Sum       18313   10477   2611              1626001   702581   87777



     bravais-lattice index     =            4
     lattice parameter (alat)  =      23.2937  a.u.
     unit-cell volume          =    8879.8548 (a.u.)^3
     number of atoms/cell      =           52
     number of atomic types    =            3
     number of electrons       =       209.00
     number of Kohn-Sham states=          126
     kinetic-energy cutoff     =      70.0000  Ry
     charge density cutoff     =     490.0000  Ry
     convergence threshold     =      1.0E-06
     mixing beta               =       0.7000
     number of iterations used =            8  plain     mixing
     Exchange-correlation      = RVV10 ( 1  4 13  4 3 0)

     celldm(1)=  23.293684  celldm(2)=   0.000000  celldm(3)=   0.811261
     celldm(4)=   0.000000  celldm(5)=   0.000000  celldm(6)=   0.000000

     crystal axes: (cart. coord. in units of alat)
               a(1) = (   1.000000   0.000000   0.000000 )  
               a(2) = (  -0.500000   0.866025   0.000000 )  
               a(3) = (   0.000000   0.000000   0.811261 )  

     reciprocal axes: (cart. coord. in units 2 pi/alat)
               b(1) = (  1.000000  0.577350 -0.000000 )  
               b(2) = (  0.000000  1.154701  0.000000 )  
               b(3) = (  0.000000 -0.000000  1.232649 )  


     PseudoPot. # 1 for H  read from file:
     /home/cristian/Escritorio/Proyecto_Grafeno/pseudopotenciales/H.pbe-rrkjus.UPF
     MD5 check sum: 7cc9d459525c9a0585f487a71c3c9563
     Pseudo is Ultrasoft, Zval =  1.0
     Generated by new atomic code, or converted to UPF format
     Using radial grid of 1061 points,  2 beta functions with: 
                l(1) =   0
                l(2) =   0
     Q(r) pseudized with 0 coefficients 


     PseudoPot. # 2 for C  read from file:
     /home/cristian/Escritorio/Proyecto_Grafeno/pseudopotenciales/C.pbe-n-rrkjus_psl.1.0.0.UPF
     MD5 check sum: 1fdd950c42eb37d8afe3dd2f8d12311e
     Pseudo is Ultrasoft + core correction, Zval =  4.0
     Generated using "atomic" code by A. Dal Corso v.6.3MaX
     Using radial grid of 1073 points,  4 beta functions with: 
                l(1) =   0
                l(2) =   0
                l(3) =   1
                l(4) =   1
     Q(r) pseudized with 0 coefficients 


     PseudoPot. # 3 for Cu read from file:
     /home/cristian/Escritorio/Proyecto_Grafeno/pseudopotenciales/Cu.pbe-dn-rrkjus_psl.1.0.0.UPF
     MD5 check sum: ba3d6c84e19846e79d48cdc68ff7152b
     Pseudo is Ultrasoft + core correction, Zval = 11.0
     Generated using "atomic" code by A. Dal Corso v.6.3
     Using radial grid of 1199 points,  6 beta functions with: 
                l(1) =   0
                l(2) =   0
                l(3) =   1
                l(4) =   1
                l(5) =   2
                l(6) =   2
     Q(r) pseudized with 0 coefficients 


     vdW kernel table read from file rVV10_kernel_table
     MD5 check sum: b8e2538accc0c0b3206b45ba4daaba6c

     atomic species   valence    mass     pseudopotential
        H              1.00     1.00794     H ( 1.00)
        C              4.00    12.01070     C ( 1.00)
        Cu            11.00    63.54600     Cu( 1.00)

     No symmetry found


                                    s                        frac. trans.

      isym =  1     identity                                     

 cryst.   s( 1) = (     1          0          0      )
                  (     0          1          0      )
                  (     0          0          1      )

 cart.    s( 1) = (  1.0000000  0.0000000  0.0000000 )
                  (  0.0000000  1.0000000  0.0000000 )
                  (  0.0000000  0.0000000  1.0000000 )


     point group C_1 (1)    
     there are  1 classes
     the character table:

       E    
A      1.00

     the symmetry operations in each class and the name of the first element:

     E        1
          identity                                               

   Cartesian axes

     site n.     atom                  positions (alat units)
         1           H   tau(   1) = (   0.2194937   0.4907477   0.1947027  )
         2           H   tau(   2) = (   0.2805063   0.4907477   0.1947027  )
         3           C   tau(   3) = (   0.0000000   0.0000000   0.0000000  )
         4           C   tau(   4) = (   0.0000000   0.1154701   0.0000000  )
         5           C   tau(   5) = (  -0.1000000   0.1732051   0.0000000  )
         6           C   tau(   6) = (  -0.1000000   0.2886751   0.0000000  )
         7           C   tau(   7) = (  -0.2000000   0.3464102   0.0000000  )
         8           C   tau(   8) = (  -0.2000000   0.4618802   0.0000000  )
         9           C   tau(   9) = (  -0.3000000   0.5196152   0.0000000  )
        10           C   tau(  10) = (  -0.3000000   0.6350853   0.0000000  )
        11           C   tau(  11) = (  -0.4000000   0.6928203   0.0000000  )
        12           C   tau(  12) = (  -0.4000000   0.8082904   0.0000000  )
        13           C   tau(  13) = (   0.2000000   0.0000000   0.0000000  )
        14           C   tau(  14) = (   0.2000000   0.1154701   0.0000000  )
        15           C   tau(  15) = (   0.1000000   0.1732051   0.0000000  )
        16           C   tau(  16) = (   0.1000000   0.2886751   0.0000000  )
        17           C   tau(  17) = (   0.0000000   0.3464102   0.0000000  )
        18           C   tau(  18) = (   0.0000000   0.4618802   0.0000000  )
        19           C   tau(  19) = (  -0.1000000   0.5196152   0.0000000  )
        20           C   tau(  20) = (  -0.1000000   0.6350853   0.0000000  )
        21           C   tau(  21) = (  -0.2000000   0.6928203   0.0000000  )
        22           C   tau(  22) = (  -0.2000000   0.8082904   0.0000000  )
        23           C   tau(  23) = (   0.4000000   0.0000000   0.0000000  )
        24           C   tau(  24) = (   0.4000000   0.1154701   0.0000000  )
        25           C   tau(  25) = (   0.3000000   0.1732051   0.0000000  )
        26           C   tau(  26) = (   0.3000000   0.2886751   0.0000000  )
        27           C   tau(  27) = (   0.2000000   0.3464102   0.0000000  )
        28           Cu  tau(  28) = (   0.2000000   0.4618802   0.0000000  )
        29           C   tau(  29) = (   0.1000000   0.5196152   0.0000000  )
        30           C   tau(  30) = (   0.1000000   0.6350853   0.0000000  )
        31           C   tau(  31) = (   0.0000000   0.6928203   0.0000000  )
        32           C   tau(  32) = (   0.0000000   0.8082904   0.0000000  )
        33           C   tau(  33) = (   0.6000000   0.0000000   0.0000000  )
        34           C   tau(  34) = (   0.6000000   0.1154701   0.0000000  )
        35           C   tau(  35) = (   0.5000000   0.1732051   0.0000000  )
        36           C   tau(  36) = (   0.5000000   0.2886751   0.0000000  )
        37           C   tau(  37) = (   0.4000000   0.3464102   0.0000000  )
        38           C   tau(  38) = (   0.4000000   0.4618802   0.0000000  )
        39           C   tau(  39) = (   0.3000000   0.5196152   0.0000000  )
        40           C   tau(  40) = (   0.3000000   0.6350853   0.0000000  )
        41           C   tau(  41) = (   0.2000000   0.6928203   0.0000000  )
        42           C   tau(  42) = (   0.2000000   0.8082904   0.0000000  )
        43           C   tau(  43) = (   0.8000000   0.0000000   0.0000000  )
        44           C   tau(  44) = (   0.8000000   0.1154701   0.0000000  )
        45           C   tau(  45) = (   0.7000000   0.1732051   0.0000000  )
        46           C   tau(  46) = (   0.7000000   0.2886751   0.0000000  )
        47           C   tau(  47) = (   0.6000000   0.3464102   0.0000000  )
        48           C   tau(  48) = (   0.6000000   0.4618802   0.0000000  )
        49           C   tau(  49) = (   0.5000000   0.5196152   0.0000000  )
        50           C   tau(  50) = (   0.5000000   0.6350853   0.0000000  )
        51           C   tau(  51) = (   0.4000000   0.6928203   0.0000000  )
        52           C   tau(  52) = (   0.4000000   0.8082904   0.0000000  )

   Crystallographic axes

     site n.     atom                  positions (cryst. coord.)
         1           H   tau(   1) = (  0.5028270  0.5666667  0.2400000  )
         2           H   tau(   2) = (  0.5638397  0.5666667  0.2400000  )
         3           C   tau(   3) = (  0.0000000  0.0000000  0.0000000  )
         4           C   tau(   4) = (  0.0666667  0.1333333  0.0000000  )
         5           C   tau(   5) = (  0.0000000  0.2000000  0.0000000  )
         6           C   tau(   6) = (  0.0666667  0.3333333  0.0000000  )
         7           C   tau(   7) = (  0.0000000  0.4000000  0.0000000  )
         8           C   tau(   8) = (  0.0666667  0.5333333  0.0000000  )
         9           C   tau(   9) = (  0.0000000  0.6000000  0.0000000  )
        10           C   tau(  10) = (  0.0666667  0.7333333  0.0000000  )
        11           C   tau(  11) = (  0.0000000  0.8000000  0.0000000  )
        12           C   tau(  12) = (  0.0666667  0.9333333  0.0000000  )
        13           C   tau(  13) = (  0.2000000  0.0000000  0.0000000  )
        14           C   tau(  14) = (  0.2666667  0.1333333  0.0000000  )
        15           C   tau(  15) = (  0.2000000  0.2000000  0.0000000  )
        16           C   tau(  16) = (  0.2666667  0.3333333  0.0000000  )
        17           C   tau(  17) = (  0.2000000  0.4000000  0.0000000  )
        18           C   tau(  18) = (  0.2666667  0.5333333  0.0000000  )
        19           C   tau(  19) = (  0.2000000  0.6000000  0.0000000  )
        20           C   tau(  20) = (  0.2666667  0.7333333  0.0000000  )
        21           C   tau(  21) = (  0.2000000  0.8000000  0.0000000  )
        22           C   tau(  22) = (  0.2666667  0.9333333  0.0000000  )
        23           C   tau(  23) = (  0.4000000  0.0000000  0.0000000  )
        24           C   tau(  24) = (  0.4666667  0.1333333  0.0000000  )
        25           C   tau(  25) = (  0.4000000  0.2000000  0.0000000  )
        26           C   tau(  26) = (  0.4666667  0.3333333  0.0000000  )
        27           C   tau(  27) = (  0.4000000  0.4000000  0.0000000  )
        28           Cu  tau(  28) = (  0.4666667  0.5333333  0.0000000  )
        29           C   tau(  29) = (  0.4000000  0.6000000  0.0000000  )
        30           C   tau(  30) = (  0.4666667  0.7333333  0.0000000  )
        31           C   tau(  31) = (  0.4000000  0.8000000  0.0000000  )
        32           C   tau(  32) = (  0.4666667  0.9333333  0.0000000  )
        33           C   tau(  33) = (  0.6000000  0.0000000  0.0000000  )
        34           C   tau(  34) = (  0.6666667  0.1333333  0.0000000  )
        35           C   tau(  35) = (  0.6000000  0.2000000  0.0000000  )
        36           C   tau(  36) = (  0.6666667  0.3333333  0.0000000  )
        37           C   tau(  37) = (  0.6000000  0.4000000  0.0000000  )
        38           C   tau(  38) = (  0.6666667  0.5333333  0.0000000  )
        39           C   tau(  39) = (  0.6000000  0.6000000  0.0000000  )
        40           C   tau(  40) = (  0.6666667  0.7333333  0.0000000  )
        41           C   tau(  41) = (  0.6000000  0.8000000  0.0000000  )
        42           C   tau(  42) = (  0.6666667  0.9333333  0.0000000  )
        43           C   tau(  43) = (  0.8000000  0.0000000  0.0000000  )
        44           C   tau(  44) = (  0.8666667  0.1333333  0.0000000  )
        45           C   tau(  45) = (  0.8000000  0.2000000  0.0000000  )
        46           C   tau(  46) = (  0.8666667  0.3333333  0.0000000  )
        47           C   tau(  47) = (  0.8000000  0.4000000  0.0000000  )
        48           C   tau(  48) = (  0.8666667  0.5333333  0.0000000  )
        49           C   tau(  49) = (  0.8000000  0.6000000  0.0000000  )
        50           C   tau(  50) = (  0.8666667  0.7333333  0.0000000  )
        51           C   tau(  51) = (  0.8000000  0.8000000  0.0000000  )
        52           C   tau(  52) = (  0.8666667  0.9333333  0.0000000  )

     number of k points=     1  Marzari-Vanderbilt smearing, width (Ry)=  0.0010
                       cart. coord. in units 2pi/alat
        k(    1) = (   0.0000000   0.0000000   0.0000000), wk =   2.0000000

                       cryst. coord.
        k(    1) = (   0.0000000   0.0000000   0.0000000), wk =   2.0000000

     Dense  grid:  1626001 G-vectors     FFT dimensions: ( 180, 180, 135)

     Smooth grid:   702581 G-vectors     FFT dimensions: ( 125, 125, 108)

     Dynamical RAM for                 wfc:      28.14 MB

     Dynamical RAM for     wfc (w. buffer):      28.14 MB

     Dynamical RAM for           str. fact:      12.41 MB

     Dynamical RAM for           local pot:       0.00 MB

     Dynamical RAM for          nlocal pot:      92.46 MB

     Dynamical RAM for                qrad:      19.73 MB

     Dynamical RAM for          rho,v,vnew:      29.46 MB

     Dynamical RAM for               rhoin:       9.82 MB

     Dynamical RAM for            rho*nmix:      66.16 MB

     Dynamical RAM for           G-vectors:      16.40 MB

     Dynamical RAM for          h,s,v(r/c):      11.63 MB

     Dynamical RAM for          <psi|beta>:       0.80 MB

     Dynamical RAM for                 psi:     112.56 MB

     Dynamical RAM for                hpsi:     112.56 MB

     Dynamical RAM for                spsi:     112.56 MB

     Dynamical RAM for      wfcinit/wfcrot:      93.45 MB

     Dynamical RAM for           addusdens:     971.75 MB

     Estimated static dynamical RAM per process >     319.55 MB

     Estimated max dynamical RAM per process >       1.26 GB

     Estimated total dynamical RAM >       7.57 GB

     Check: negative core charge=   -0.000002

     Initial potential from superposition of free atoms

     starting charge  208.80532, renormalised to  209.00000

     negative rho (up, down):  6.852E-05 0.000E+00


---------------------------------------------------------------------------------
Carrying out rVV10 run using the following parameters:
Nqs =      20    Nr_points =    1024   r_max =   100.000
b_value =  6.30000    beta =  0.00901
     q_mesh =  0.00010000  0.00030000  0.00058939  0.00100810
               0.00161396  0.00249058  0.00375900  0.00559430
               0.00824984  0.01209221  0.01765183  0.02569619
               0.03733578  0.05417739  0.07854596  0.11380545
               0.16482331  0.23864234  0.34545298  0.50000000

Gradients computed in Reciprocal space

---------------------------------------------------------------------------------


     Starting wfcs are  207 randomized atomic wfcs

     total cpu time spent up to now is       50.5 secs

     Self-consistent Calculation

     iteration #  1     ecut=    70.00 Ry     beta= 0.70
     Davidson diagonalization with overlap
     ethr =  1.00E-02,  avg # of iterations =  8.0

     negative rho (up, down):  1.660E-04 0.000E+00

     total cpu time spent up to now is      127.2 secs

     total energy              =    -732.51642910 Ry
     Harris-Foulkes estimate   =    -737.58034696 Ry
     estimated scf accuracy    <       7.63321663 Ry

     iteration #  2     ecut=    70.00 Ry     beta= 0.70
     Davidson diagonalization with overlap
     ethr =  3.65E-03,  avg # of iterations =  3.0

     negative rho (up, down):  2.058E-04 0.000E+00

     total cpu time spent up to now is      198.2 secs

     total energy              =    -731.95600216 Ry
     Harris-Foulkes estimate   =    -737.03311694 Ry
     estimated scf accuracy    <       9.91632120 Ry

     iteration #  3     ecut=    70.00 Ry     beta= 0.70
     Davidson diagonalization with overlap
     ethr =  3.65E-03,  avg # of iterations =  6.0

     negative rho (up, down):  2.640E-04 0.000E+00

     total cpu time spent up to now is      257.2 secs

     total energy              =    -730.60084314 Ry
     Harris-Foulkes estimate   =    -736.35461870 Ry
     estimated scf accuracy    <      26.40980665 Ry

     iteration #  4     ecut=    70.00 Ry     beta= 0.70
     Davidson diagonalization with overlap
     ethr =  3.65E-03,  avg # of iterations =  3.0

     negative rho (up, down):  2.859E-04 0.000E+00

     total cpu time spent up to now is      320.3 secs

     total energy              =    -734.30126472 Ry
     Harris-Foulkes estimate   =    -735.38456911 Ry
     estimated scf accuracy    <       6.71221299 Ry

     iteration #  5     ecut=    70.00 Ry     beta= 0.70
     Davidson diagonalization with overlap
     ethr =  3.21E-03,  avg # of iterations =  2.0

     negative rho (up, down):  3.063E-04 0.000E+00

     total cpu time spent up to now is      374.6 secs

     total energy              =    -734.72247797 Ry
     Harris-Foulkes estimate   =    -734.87721918 Ry
     estimated scf accuracy    <       0.67079838 Ry

     iteration #  6     ecut=    70.00 Ry     beta= 0.70
     Davidson diagonalization with overlap
     ethr =  3.21E-04,  avg # of iterations = 10.0

     negative rho (up, down):  3.221E-04 0.000E+00

     total cpu time spent up to now is      433.6 secs

     total energy              =    -734.73783471 Ry
     Harris-Foulkes estimate   =    -734.78511495 Ry
     estimated scf accuracy    <       0.23665668 Ry

     iteration #  7     ecut=    70.00 Ry     beta= 0.70
     Davidson diagonalization with overlap
     ethr =  1.13E-04,  avg # of iterations =  3.0

     negative rho (up, down):  3.661E-04 0.000E+00

     total cpu time spent up to now is      488.9 secs

     total energy              =    -734.73427258 Ry
     Harris-Foulkes estimate   =    -734.76377655 Ry
     estimated scf accuracy    <       0.15189411 Ry

     iteration #  8     ecut=    70.00 Ry     beta= 0.70
     Davidson diagonalization with overlap
     ethr =  7.27E-05,  avg # of iterations =  2.0

     negative rho (up, down):  4.174E-04 0.000E+00

     total cpu time spent up to now is      543.2 secs

     total energy              =    -734.73254138 Ry
     Harris-Foulkes estimate   =    -734.74547191 Ry
     estimated scf accuracy    <       0.06517647 Ry

     iteration #  9     ecut=    70.00 Ry     beta= 0.70
     Davidson diagonalization with overlap
     ethr =  3.12E-05,  avg # of iterations =  2.0

     negative rho (up, down):  5.844E-04 0.000E+00

     total cpu time spent up to now is      597.2 secs

     total energy              =    -734.73172252 Ry
     Harris-Foulkes estimate   =    -734.74020511 Ry
     estimated scf accuracy    <       0.04169620 Ry

     iteration # 10     ecut=    70.00 Ry     beta= 0.70
     Davidson diagonalization with overlap
     ethr =  2.00E-05,  avg # of iterations = 10.0

     negative rho (up, down):  5.829E-04 0.000E+00

     total cpu time spent up to now is      655.7 secs

     total energy              =    -734.73331555 Ry
     Harris-Foulkes estimate   =    -734.73538312 Ry
     estimated scf accuracy    <       0.02242615 Ry

     iteration # 11     ecut=    70.00 Ry     beta= 0.70
     Davidson diagonalization with overlap
     ethr =  1.07E-05,  avg # of iterations =  1.0

     negative rho (up, down):  6.797E-04 0.000E+00

     total cpu time spent up to now is      709.8 secs

     total energy              =    -734.73334339 Ry
     Harris-Foulkes estimate   =    -734.73513262 Ry
     estimated scf accuracy    <       0.02170868 Ry

     iteration # 12     ecut=    70.00 Ry     beta= 0.70
     Davidson diagonalization with overlap
     ethr =  1.04E-05,  avg # of iterations =  1.0

     negative rho (up, down):  6.505E-04 0.000E+00

     total cpu time spent up to now is      764.2 secs

     total energy              =    -734.73370969 Ry
     Harris-Foulkes estimate   =    -734.73420720 Ry
     estimated scf accuracy    <       0.00786213 Ry

     iteration # 13     ecut=    70.00 Ry     beta= 0.70
     Davidson diagonalization with overlap
     ethr =  3.76E-06,  avg # of iterations =  1.0

     negative rho (up, down):  6.725E-04 0.000E+00

     total cpu time spent up to now is      818.1 secs

     total energy              =    -734.73371278 Ry
     Harris-Foulkes estimate   =    -734.73403603 Ry
     estimated scf accuracy    <       0.00185487 Ry

     iteration # 14     ecut=    70.00 Ry     beta= 0.70
     Davidson diagonalization with overlap
     ethr =  8.87E-07,  avg # of iterations =  3.0

     negative rho (up, down):  6.590E-04 0.000E+00

     total cpu time spent up to now is      877.7 secs

     total energy              =    -734.73366671 Ry
     Harris-Foulkes estimate   =    -734.73425013 Ry
     estimated scf accuracy    <       0.00574048 Ry

     iteration # 15     ecut=    70.00 Ry     beta= 0.70
     Davidson diagonalization with overlap
     ethr =  8.87E-07,  avg # of iterations =  2.0

     negative rho (up, down):  6.587E-04 0.000E+00

     total cpu time spent up to now is      932.2 secs

     total energy              =    -734.73394009 Ry
     Harris-Foulkes estimate   =    -734.73397131 Ry
     estimated scf accuracy    <       0.00083184 Ry

     iteration # 16     ecut=    70.00 Ry     beta= 0.70
     Davidson diagonalization with overlap
     ethr =  3.98E-07,  avg # of iterations =  1.0

     negative rho (up, down):  6.598E-04 0.000E+00

     total cpu time spent up to now is      986.2 secs

     total energy              =    -734.73395859 Ry
     Harris-Foulkes estimate   =    -734.73396107 Ry
     estimated scf accuracy    <       0.00001228 Ry

     iteration # 17     ecut=    70.00 Ry     beta= 0.70
     Davidson diagonalization with overlap
     ethr =  5.88E-09,  avg # of iterations =  4.0

     negative rho (up, down):  6.613E-04 0.000E+00

     total cpu time spent up to now is     1049.9 secs

     total energy              =    -734.73396102 Ry
     Harris-Foulkes estimate   =    -734.73396248 Ry
     estimated scf accuracy    <       0.00001107 Ry

     iteration # 18     ecut=    70.00 Ry     beta= 0.70
     Davidson diagonalization with overlap
     ethr =  5.30E-09,  avg # of iterations =  2.0

     negative rho (up, down):  6.616E-04 0.000E+00

     total cpu time spent up to now is     1104.0 secs

     total energy              =    -734.73396117 Ry
     Harris-Foulkes estimate   =    -734.73396186 Ry
     estimated scf accuracy    <       0.00000344 Ry

     iteration # 19     ecut=    70.00 Ry     beta= 0.70
     Davidson diagonalization with overlap
     ethr =  1.65E-09,  avg # of iterations =  2.0

     negative rho (up, down):  6.619E-04 0.000E+00

     total cpu time spent up to now is     1158.6 secs

     End of self-consistent calculation

          k = 0.0000 0.0000 0.0000 ( 87777 PWs)   bands (ev):

   -19.8272 -18.9820 -18.9806 -18.9012 -18.8991 -18.8392 -18.7247 -17.1465
   -17.1453 -17.1243 -17.0772 -17.0761 -16.7911 -16.3079 -16.3075 -16.1718
   -16.1709 -16.1565 -15.7301 -14.3752 -14.3727 -14.1159 -14.0307 -14.0294
   -13.5537 -13.1529 -13.1526 -13.0732 -12.9173 -12.9169 -12.5979 -12.2526
   -12.2518 -11.7034 -11.5911 -11.5900 -11.1299 -10.8662 -10.8658  -9.4998
    -9.3542  -9.3536  -9.2388  -9.2285  -9.2285  -9.2167  -9.0509  -9.0290
    -9.0284  -9.0038  -8.8968  -8.6954  -8.6942  -8.0320  -7.8824  -7.8360
    -7.6363  -7.6360  -7.5288  -7.5249  -7.3937  -6.8530  -6.8420  -6.8411
    -6.7942  -6.7812  -6.7097  -6.7073  -6.6082  -6.6058  -6.5698  -6.5657
    -6.5654  -6.5182  -6.3741  -6.3733  -6.2700  -5.5983  -5.5968  -5.0184
    -4.9515  -4.8745  -4.8732  -4.7614  -4.7496  -4.7274  -4.7249  -4.5362
    -4.5290  -4.3924  -3.8523  -3.8501  -3.8041  -3.8033  -3.7831  -3.6294
    -3.6239  -3.3099  -1.8823  -1.8265  -1.8251  -1.7235  -1.7197  -1.1678
    -0.6287  -0.6284   0.9113   0.9463   0.9487   1.1005   1.1067   1.5118
     2.5665   2.7860   2.7945   2.8385   2.9275   2.9412   3.3602   3.5240
     3.6825   3.8036   3.8094   3.8286   3.9838   4.2755

     occupation numbers 
     1.0000   1.0000   1.0000   1.0000   1.0000   1.0000   1.0000   1.0000
     1.0000   1.0000   1.0000   1.0000   1.0000   1.0000   1.0000   1.0000
     1.0000   1.0000   1.0000   1.0000   1.0000   1.0000   1.0000   1.0000
     1.0000   1.0000   1.0000   1.0000   1.0000   1.0000   1.0000   1.0000
     1.0000   1.0000   1.0000   1.0000   1.0000   1.0000   1.0000   1.0000
     1.0000   1.0000   1.0000   1.0000   1.0000   1.0000   1.0000   1.0000
     1.0000   1.0000   1.0000   1.0000   1.0000   1.0000   1.0000   1.0000
     1.0000   1.0000   1.0000   1.0000   1.0000   1.0000   1.0000   1.0000
     1.0000   1.0000   1.0000   1.0000   1.0000   1.0000   1.0000   1.0000
     1.0000   1.0000   1.0000   1.0000   1.0000   1.0000   1.0000   1.0000
     1.0000   1.0000   1.0000   1.0000   1.0000   1.0000   1.0000   1.0000
     1.0000   1.0000   1.0000   1.0000   1.0000   1.0000   1.0000   1.0000
     1.0000   1.0000   1.0000   1.0000   1.0000   1.0000   1.0000   1.0000
     0.2564   0.2436   0.0000   0.0000   0.0000   0.0000   0.0000   0.0000
     0.0000   0.0000   0.0000   0.0000   0.0000   0.0000   0.0000   0.0000
     0.0000   0.0000   0.0000   0.0000   0.0000   0.0000

     the Fermi energy is    -0.6319 ev

!    total energy              =    -734.73396107 Ry
     Harris-Foulkes estimate   =    -734.73396149 Ry
     estimated scf accuracy    <       0.00000046 Ry

     The total energy is the sum of the following terms:

     one-electron contribution =   -2505.28766614 Ry
     hartree contribution      =    1308.41466905 Ry
     xc contribution           =    -275.96083778 Ry
     ewald contribution        =     738.10048715 Ry
     smearing contrib. (-TS)   =      -0.00061334 Ry

     convergence has been achieved in  19 iterations

     Writing output data file distance-2.4.save/

     init_run     :     48.37s CPU     49.46s WALL (       1 calls)
     electrons    :   1077.42s CPU   1108.11s WALL (       1 calls)

     Called by init_run:
     wfcinit      :     23.66s CPU     23.79s WALL (       1 calls)
     wfcinit:atom :      0.02s CPU      0.05s WALL (       1 calls)
     wfcinit:wfcr :     23.47s CPU     23.53s WALL (       1 calls)
     potinit      :     11.31s CPU     11.66s WALL (       1 calls)
     hinit0       :      8.24s CPU      8.27s WALL (       1 calls)

     Called by electrons:
     c_bands      :    644.08s CPU    647.12s WALL (      19 calls)
     sum_band     :    217.15s CPU    227.62s WALL (      19 calls)
     v_of_rho     :    129.46s CPU    136.60s WALL (      20 calls)
     v_h          :      1.55s CPU      1.61s WALL (      20 calls)
     v_xc         :    127.91s CPU    134.99s WALL (      20 calls)
     newd         :     91.21s CPU    101.97s WALL (      20 calls)
     mix_rho      :      4.21s CPU      4.28s WALL (      19 calls)

     Called by c_bands:
     init_us_2    :      1.97s CPU      2.02s WALL (      39 calls)
     cegterg      :    639.90s CPU    642.91s WALL (      19 calls)

     Called by sum_band:
     sum_band:bec :      0.01s CPU      0.01s WALL (      19 calls)
     addusdens    :    135.10s CPU    145.06s WALL (      19 calls)

     Called by *egterg:
     h_psi        :    345.00s CPU    347.06s WALL (      86 calls)
     s_psi        :    116.68s CPU    116.76s WALL (      86 calls)
     g_psi        :      0.30s CPU      0.31s WALL (      66 calls)
     cdiaghg      :      5.63s CPU      5.63s WALL (      85 calls)
     cegterg:over :     76.56s CPU     76.60s WALL (      66 calls)
     cegterg:upda :     45.34s CPU     45.57s WALL (      66 calls)
     cegterg:last :     34.05s CPU     34.05s WALL (      19 calls)

     Called by h_psi:
     h_psi:pot    :    344.53s CPU    346.25s WALL (      86 calls)
     h_psi:calbec :    116.66s CPU    116.73s WALL (      86 calls)
     vloc_psi     :    111.61s CPU    113.22s WALL (      86 calls)
     add_vuspsi   :    116.26s CPU    116.29s WALL (      86 calls)

     General routines
     calbec       :    167.30s CPU    167.41s WALL (     105 calls)
     fft          :     75.94s CPU     78.54s WALL (    1258 calls)
     ffts         :      0.73s CPU      0.77s WALL (      39 calls)
     fftw         :    118.05s CPU    119.85s WALL (   13434 calls)
     interpolate  :      1.86s CPU      1.93s WALL (      20 calls)

     Parallel routines
     fft_scatt_xy :     34.82s CPU     35.19s WALL (   14731 calls)
     fft_scatt_yz :     64.79s CPU     67.93s WALL (   14731 calls)

     PWSCF        :  18m46.99s CPU  19m18.96s WALL


   This run was terminated on:  18:14:18  25Jul2022            

=------------------------------------------------------------------------------=
   JOB DONE.
=------------------------------------------------------------------------------=
