
     Program PWSCF v.6.4.1 starts on 25Jul2022 at 18:51:43 

     This program is part of the open-source Quantum ESPRESSO suite
     for quantum simulation of materials; please cite
         "P. Giannozzi et al., J. Phys.:Condens. Matter 21 395502 (2009);
         "P. Giannozzi et al., J. Phys.:Condens. Matter 29 465901 (2017);
          URL http://www.quantum-espresso.org", 
     in publications or presentations arising from this work. More details at
     http://www.quantum-espresso.org/quote

     Parallel version (MPI), running on     6 processors

     MPI processes distributed on     1 nodes
     R & G space division:  proc/nbgrp/npool/nimage =       6
     Reading input from distance-1.8.in

     Current dimensions of program PWSCF are:
     Max number of different atomic species (ntypx) = 10
     Max number of k-points (npk) =  40000
     Max angular momentum in pseudopotentials (lmaxx) =  3

     IMPORTANT: XC functional enforced from input :
     Exchange-correlation      = RVV10 ( 1  4 13  4 3 0)
     Any further DFT definition will be discarded
     Please, verify this is what you really want

               file H.pbe-rrkjus.UPF: wavefunction(s)  1S renormalized
               file Cu.pbe-dn-rrkjus_psl.1.0.0.UPF: wavefunction(s)  3D renormalized

     Subspace diagonalization in iterative solution of the eigenvalue problem:
     a serial algorithm will be used


     Parallelization info
     --------------------
     sticks:   dense  smooth     PW     G-vecs:    dense   smooth      PW
     Min        3051    1746    432               270999   117096   14629
     Max        3053    1747    437               271001   117099   14630
     Sum       18313   10477   2611              1626001   702581   87777



     bravais-lattice index     =            4
     lattice parameter (alat)  =      23.2937  a.u.
     unit-cell volume          =    8879.8548 (a.u.)^3
     number of atoms/cell      =           52
     number of atomic types    =            3
     number of electrons       =       209.00
     number of Kohn-Sham states=          126
     kinetic-energy cutoff     =      70.0000  Ry
     charge density cutoff     =     490.0000  Ry
     convergence threshold     =      1.0E-06
     mixing beta               =       0.7000
     number of iterations used =            8  plain     mixing
     Exchange-correlation      = RVV10 ( 1  4 13  4 3 0)

     celldm(1)=  23.293684  celldm(2)=   0.000000  celldm(3)=   0.811261
     celldm(4)=   0.000000  celldm(5)=   0.000000  celldm(6)=   0.000000

     crystal axes: (cart. coord. in units of alat)
               a(1) = (   1.000000   0.000000   0.000000 )  
               a(2) = (  -0.500000   0.866025   0.000000 )  
               a(3) = (   0.000000   0.000000   0.811261 )  

     reciprocal axes: (cart. coord. in units 2 pi/alat)
               b(1) = (  1.000000  0.577350 -0.000000 )  
               b(2) = (  0.000000  1.154701  0.000000 )  
               b(3) = (  0.000000 -0.000000  1.232649 )  


     PseudoPot. # 1 for H  read from file:
     /home/cristian/Escritorio/Proyecto_Grafeno/pseudopotenciales/H.pbe-rrkjus.UPF
     MD5 check sum: 7cc9d459525c9a0585f487a71c3c9563
     Pseudo is Ultrasoft, Zval =  1.0
     Generated by new atomic code, or converted to UPF format
     Using radial grid of 1061 points,  2 beta functions with: 
                l(1) =   0
                l(2) =   0
     Q(r) pseudized with 0 coefficients 


     PseudoPot. # 2 for C  read from file:
     /home/cristian/Escritorio/Proyecto_Grafeno/pseudopotenciales/C.pbe-n-rrkjus_psl.1.0.0.UPF
     MD5 check sum: 1fdd950c42eb37d8afe3dd2f8d12311e
     Pseudo is Ultrasoft + core correction, Zval =  4.0
     Generated using "atomic" code by A. Dal Corso v.6.3MaX
     Using radial grid of 1073 points,  4 beta functions with: 
                l(1) =   0
                l(2) =   0
                l(3) =   1
                l(4) =   1
     Q(r) pseudized with 0 coefficients 


     PseudoPot. # 3 for Cu read from file:
     /home/cristian/Escritorio/Proyecto_Grafeno/pseudopotenciales/Cu.pbe-dn-rrkjus_psl.1.0.0.UPF
     MD5 check sum: ba3d6c84e19846e79d48cdc68ff7152b
     Pseudo is Ultrasoft + core correction, Zval = 11.0
     Generated using "atomic" code by A. Dal Corso v.6.3
     Using radial grid of 1199 points,  6 beta functions with: 
                l(1) =   0
                l(2) =   0
                l(3) =   1
                l(4) =   1
                l(5) =   2
                l(6) =   2
     Q(r) pseudized with 0 coefficients 


     vdW kernel table read from file rVV10_kernel_table
     MD5 check sum: b8e2538accc0c0b3206b45ba4daaba6c

     atomic species   valence    mass     pseudopotential
        H              1.00     1.00794     H ( 1.00)
        C              4.00    12.01070     C ( 1.00)
        Cu            11.00    63.54600     Cu( 1.00)

     No symmetry found


                                    s                        frac. trans.

      isym =  1     identity                                     

 cryst.   s( 1) = (     1          0          0      )
                  (     0          1          0      )
                  (     0          0          1      )

 cart.    s( 1) = (  1.0000000  0.0000000  0.0000000 )
                  (  0.0000000  1.0000000  0.0000000 )
                  (  0.0000000  0.0000000  1.0000000 )


     point group C_1 (1)    
     there are  1 classes
     the character table:

       E    
A      1.00

     the symmetry operations in each class and the name of the first element:

     E        1
          identity                                               

   Cartesian axes

     site n.     atom                  positions (alat units)
         1           H   tau(   1) = (   0.2194937   0.4907477   0.1460270  )
         2           H   tau(   2) = (   0.2805063   0.4907477   0.1460270  )
         3           C   tau(   3) = (   0.0000000   0.0000000   0.0000000  )
         4           C   tau(   4) = (   0.0000000   0.1154701   0.0000000  )
         5           C   tau(   5) = (  -0.1000000   0.1732051   0.0000000  )
         6           C   tau(   6) = (  -0.1000000   0.2886751   0.0000000  )
         7           C   tau(   7) = (  -0.2000000   0.3464102   0.0000000  )
         8           C   tau(   8) = (  -0.2000000   0.4618802   0.0000000  )
         9           C   tau(   9) = (  -0.3000000   0.5196152   0.0000000  )
        10           C   tau(  10) = (  -0.3000000   0.6350853   0.0000000  )
        11           C   tau(  11) = (  -0.4000000   0.6928203   0.0000000  )
        12           C   tau(  12) = (  -0.4000000   0.8082904   0.0000000  )
        13           C   tau(  13) = (   0.2000000   0.0000000   0.0000000  )
        14           C   tau(  14) = (   0.2000000   0.1154701   0.0000000  )
        15           C   tau(  15) = (   0.1000000   0.1732051   0.0000000  )
        16           C   tau(  16) = (   0.1000000   0.2886751   0.0000000  )
        17           C   tau(  17) = (   0.0000000   0.3464102   0.0000000  )
        18           C   tau(  18) = (   0.0000000   0.4618802   0.0000000  )
        19           C   tau(  19) = (  -0.1000000   0.5196152   0.0000000  )
        20           C   tau(  20) = (  -0.1000000   0.6350853   0.0000000  )
        21           C   tau(  21) = (  -0.2000000   0.6928203   0.0000000  )
        22           C   tau(  22) = (  -0.2000000   0.8082904   0.0000000  )
        23           C   tau(  23) = (   0.4000000   0.0000000   0.0000000  )
        24           C   tau(  24) = (   0.4000000   0.1154701   0.0000000  )
        25           C   tau(  25) = (   0.3000000   0.1732051   0.0000000  )
        26           C   tau(  26) = (   0.3000000   0.2886751   0.0000000  )
        27           C   tau(  27) = (   0.2000000   0.3464102   0.0000000  )
        28           Cu  tau(  28) = (   0.2000000   0.4618802   0.0000000  )
        29           C   tau(  29) = (   0.1000000   0.5196152   0.0000000  )
        30           C   tau(  30) = (   0.1000000   0.6350853   0.0000000  )
        31           C   tau(  31) = (   0.0000000   0.6928203   0.0000000  )
        32           C   tau(  32) = (   0.0000000   0.8082904   0.0000000  )
        33           C   tau(  33) = (   0.6000000   0.0000000   0.0000000  )
        34           C   tau(  34) = (   0.6000000   0.1154701   0.0000000  )
        35           C   tau(  35) = (   0.5000000   0.1732051   0.0000000  )
        36           C   tau(  36) = (   0.5000000   0.2886751   0.0000000  )
        37           C   tau(  37) = (   0.4000000   0.3464102   0.0000000  )
        38           C   tau(  38) = (   0.4000000   0.4618802   0.0000000  )
        39           C   tau(  39) = (   0.3000000   0.5196152   0.0000000  )
        40           C   tau(  40) = (   0.3000000   0.6350853   0.0000000  )
        41           C   tau(  41) = (   0.2000000   0.6928203   0.0000000  )
        42           C   tau(  42) = (   0.2000000   0.8082904   0.0000000  )
        43           C   tau(  43) = (   0.8000000   0.0000000   0.0000000  )
        44           C   tau(  44) = (   0.8000000   0.1154701   0.0000000  )
        45           C   tau(  45) = (   0.7000000   0.1732051   0.0000000  )
        46           C   tau(  46) = (   0.7000000   0.2886751   0.0000000  )
        47           C   tau(  47) = (   0.6000000   0.3464102   0.0000000  )
        48           C   tau(  48) = (   0.6000000   0.4618802   0.0000000  )
        49           C   tau(  49) = (   0.5000000   0.5196152   0.0000000  )
        50           C   tau(  50) = (   0.5000000   0.6350853   0.0000000  )
        51           C   tau(  51) = (   0.4000000   0.6928203   0.0000000  )
        52           C   tau(  52) = (   0.4000000   0.8082904   0.0000000  )

   Crystallographic axes

     site n.     atom                  positions (cryst. coord.)
         1           H   tau(   1) = (  0.5028270  0.5666667  0.1800000  )
         2           H   tau(   2) = (  0.5638397  0.5666667  0.1800000  )
         3           C   tau(   3) = (  0.0000000  0.0000000  0.0000000  )
         4           C   tau(   4) = (  0.0666667  0.1333333  0.0000000  )
         5           C   tau(   5) = (  0.0000000  0.2000000  0.0000000  )
         6           C   tau(   6) = (  0.0666667  0.3333333  0.0000000  )
         7           C   tau(   7) = (  0.0000000  0.4000000  0.0000000  )
         8           C   tau(   8) = (  0.0666667  0.5333333  0.0000000  )
         9           C   tau(   9) = (  0.0000000  0.6000000  0.0000000  )
        10           C   tau(  10) = (  0.0666667  0.7333333  0.0000000  )
        11           C   tau(  11) = (  0.0000000  0.8000000  0.0000000  )
        12           C   tau(  12) = (  0.0666667  0.9333333  0.0000000  )
        13           C   tau(  13) = (  0.2000000  0.0000000  0.0000000  )
        14           C   tau(  14) = (  0.2666667  0.1333333  0.0000000  )
        15           C   tau(  15) = (  0.2000000  0.2000000  0.0000000  )
        16           C   tau(  16) = (  0.2666667  0.3333333  0.0000000  )
        17           C   tau(  17) = (  0.2000000  0.4000000  0.0000000  )
        18           C   tau(  18) = (  0.2666667  0.5333333  0.0000000  )
        19           C   tau(  19) = (  0.2000000  0.6000000  0.0000000  )
        20           C   tau(  20) = (  0.2666667  0.7333333  0.0000000  )
        21           C   tau(  21) = (  0.2000000  0.8000000  0.0000000  )
        22           C   tau(  22) = (  0.2666667  0.9333333  0.0000000  )
        23           C   tau(  23) = (  0.4000000  0.0000000  0.0000000  )
        24           C   tau(  24) = (  0.4666667  0.1333333  0.0000000  )
        25           C   tau(  25) = (  0.4000000  0.2000000  0.0000000  )
        26           C   tau(  26) = (  0.4666667  0.3333333  0.0000000  )
        27           C   tau(  27) = (  0.4000000  0.4000000  0.0000000  )
        28           Cu  tau(  28) = (  0.4666667  0.5333333  0.0000000  )
        29           C   tau(  29) = (  0.4000000  0.6000000  0.0000000  )
        30           C   tau(  30) = (  0.4666667  0.7333333  0.0000000  )
        31           C   tau(  31) = (  0.4000000  0.8000000  0.0000000  )
        32           C   tau(  32) = (  0.4666667  0.9333333  0.0000000  )
        33           C   tau(  33) = (  0.6000000  0.0000000  0.0000000  )
        34           C   tau(  34) = (  0.6666667  0.1333333  0.0000000  )
        35           C   tau(  35) = (  0.6000000  0.2000000  0.0000000  )
        36           C   tau(  36) = (  0.6666667  0.3333333  0.0000000  )
        37           C   tau(  37) = (  0.6000000  0.4000000  0.0000000  )
        38           C   tau(  38) = (  0.6666667  0.5333333  0.0000000  )
        39           C   tau(  39) = (  0.6000000  0.6000000  0.0000000  )
        40           C   tau(  40) = (  0.6666667  0.7333333  0.0000000  )
        41           C   tau(  41) = (  0.6000000  0.8000000  0.0000000  )
        42           C   tau(  42) = (  0.6666667  0.9333333  0.0000000  )
        43           C   tau(  43) = (  0.8000000  0.0000000  0.0000000  )
        44           C   tau(  44) = (  0.8666667  0.1333333  0.0000000  )
        45           C   tau(  45) = (  0.8000000  0.2000000  0.0000000  )
        46           C   tau(  46) = (  0.8666667  0.3333333  0.0000000  )
        47           C   tau(  47) = (  0.8000000  0.4000000  0.0000000  )
        48           C   tau(  48) = (  0.8666667  0.5333333  0.0000000  )
        49           C   tau(  49) = (  0.8000000  0.6000000  0.0000000  )
        50           C   tau(  50) = (  0.8666667  0.7333333  0.0000000  )
        51           C   tau(  51) = (  0.8000000  0.8000000  0.0000000  )
        52           C   tau(  52) = (  0.8666667  0.9333333  0.0000000  )

     number of k points=     1  Marzari-Vanderbilt smearing, width (Ry)=  0.0010
                       cart. coord. in units 2pi/alat
        k(    1) = (   0.0000000   0.0000000   0.0000000), wk =   2.0000000

                       cryst. coord.
        k(    1) = (   0.0000000   0.0000000   0.0000000), wk =   2.0000000

     Dense  grid:  1626001 G-vectors     FFT dimensions: ( 180, 180, 135)

     Smooth grid:   702581 G-vectors     FFT dimensions: ( 125, 125, 108)

     Dynamical RAM for                 wfc:      28.14 MB

     Dynamical RAM for     wfc (w. buffer):      28.14 MB

     Dynamical RAM for           str. fact:      12.41 MB

     Dynamical RAM for           local pot:       0.00 MB

     Dynamical RAM for          nlocal pot:      92.46 MB

     Dynamical RAM for                qrad:      19.73 MB

     Dynamical RAM for          rho,v,vnew:      29.46 MB

     Dynamical RAM for               rhoin:       9.82 MB

     Dynamical RAM for            rho*nmix:      66.16 MB

     Dynamical RAM for           G-vectors:      16.40 MB

     Dynamical RAM for          h,s,v(r/c):      11.63 MB

     Dynamical RAM for          <psi|beta>:       0.80 MB

     Dynamical RAM for                 psi:     112.56 MB

     Dynamical RAM for                hpsi:     112.56 MB

     Dynamical RAM for                spsi:     112.56 MB

     Dynamical RAM for      wfcinit/wfcrot:      93.45 MB

     Dynamical RAM for           addusdens:     971.75 MB

     Estimated static dynamical RAM per process >     319.55 MB

     Estimated max dynamical RAM per process >       1.26 GB

     Estimated total dynamical RAM >       7.57 GB

     Check: negative core charge=   -0.000002

     Initial potential from superposition of free atoms

     starting charge  208.80532, renormalised to  209.00000

     negative rho (up, down):  7.852E-05 0.000E+00


---------------------------------------------------------------------------------
Carrying out rVV10 run using the following parameters:
Nqs =      20    Nr_points =    1024   r_max =   100.000
b_value =  6.30000    beta =  0.00901
     q_mesh =  0.00010000  0.00030000  0.00058939  0.00100810
               0.00161396  0.00249058  0.00375900  0.00559430
               0.00824984  0.01209221  0.01765183  0.02569619
               0.03733578  0.05417739  0.07854596  0.11380545
               0.16482331  0.23864234  0.34545298  0.50000000

Gradients computed in Reciprocal space

---------------------------------------------------------------------------------


     Starting wfcs are  207 randomized atomic wfcs

     total cpu time spent up to now is       50.7 secs

     Self-consistent Calculation

     iteration #  1     ecut=    70.00 Ry     beta= 0.70
     Davidson diagonalization with overlap
     ethr =  1.00E-02,  avg # of iterations =  6.0

     negative rho (up, down):  1.957E-04 0.000E+00

     total cpu time spent up to now is      126.9 secs

     total energy              =    -732.54280964 Ry
     Harris-Foulkes estimate   =    -737.54264327 Ry
     estimated scf accuracy    <       7.60003399 Ry

     iteration #  2     ecut=    70.00 Ry     beta= 0.70
     Davidson diagonalization with overlap
     ethr =  3.64E-03,  avg # of iterations =  6.0

     negative rho (up, down):  2.497E-04 0.000E+00

     total cpu time spent up to now is      199.0 secs

     total energy              =    -732.13321355 Ry
     Harris-Foulkes estimate   =    -736.21694471 Ry
     estimated scf accuracy    <       7.54731619 Ry

     iteration #  3     ecut=    70.00 Ry     beta= 0.70
     Davidson diagonalization with overlap
     ethr =  3.61E-03,  avg # of iterations =  4.0

     negative rho (up, down):  2.941E-04 0.000E+00

     total cpu time spent up to now is      266.9 secs

     total energy              =    -733.03254835 Ry
     Harris-Foulkes estimate   =    -735.52975940 Ry
     estimated scf accuracy    <       7.81270855 Ry

     iteration #  4     ecut=    70.00 Ry     beta= 0.70
     Davidson diagonalization with overlap
     ethr =  3.61E-03,  avg # of iterations =  3.0

     negative rho (up, down):  3.349E-04 0.000E+00

     total cpu time spent up to now is      325.1 secs

     total energy              =    -732.38868340 Ry
     Harris-Foulkes estimate   =    -735.78516006 Ry
     estimated scf accuracy    <      22.46812063 Ry

     iteration #  5     ecut=    70.00 Ry     beta= 0.70
     Davidson diagonalization with overlap
     ethr =  3.61E-03,  avg # of iterations =  3.0

     negative rho (up, down):  3.588E-04 0.000E+00

     total cpu time spent up to now is      382.8 secs

     total energy              =    -734.57912838 Ry
     Harris-Foulkes estimate   =    -734.70676299 Ry
     estimated scf accuracy    <       0.36572227 Ry

     iteration #  6     ecut=    70.00 Ry     beta= 0.70
     Davidson diagonalization with overlap
     ethr =  1.75E-04,  avg # of iterations =  7.0

     negative rho (up, down):  3.916E-04 0.000E+00

     total cpu time spent up to now is      445.2 secs

     total energy              =    -734.62019114 Ry
     Harris-Foulkes estimate   =    -734.65253087 Ry
     estimated scf accuracy    <       0.11216123 Ry

     iteration #  7     ecut=    70.00 Ry     beta= 0.70
     Davidson diagonalization with overlap
     ethr =  5.37E-05,  avg # of iterations = 11.0

     negative rho (up, down):  4.330E-04 0.000E+00

     total cpu time spent up to now is      503.6 secs

     total energy              =    -734.62690730 Ry
     Harris-Foulkes estimate   =    -734.64126155 Ry
     estimated scf accuracy    <       0.06193885 Ry

     iteration #  8     ecut=    70.00 Ry     beta= 0.70
     Davidson diagonalization with overlap
     ethr =  2.96E-05,  avg # of iterations =  2.0

     negative rho (up, down):  4.897E-04 0.000E+00

     total cpu time spent up to now is      558.8 secs

     total energy              =    -734.62733423 Ry
     Harris-Foulkes estimate   =    -734.63352539 Ry
     estimated scf accuracy    <       0.02872670 Ry

     iteration #  9     ecut=    70.00 Ry     beta= 0.70
     Davidson diagonalization with overlap
     ethr =  1.37E-05,  avg # of iterations = 10.0

     negative rho (up, down):  5.714E-04 0.000E+00

     total cpu time spent up to now is      617.4 secs

     total energy              =    -734.62935589 Ry
     Harris-Foulkes estimate   =    -734.63745729 Ry
     estimated scf accuracy    <       0.05140527 Ry

     iteration # 10     ecut=    70.00 Ry     beta= 0.70
     Davidson diagonalization with overlap
     ethr =  1.37E-05,  avg # of iterations =  2.0

     negative rho (up, down):  5.913E-04 0.000E+00

     total cpu time spent up to now is      672.1 secs

     total energy              =    -734.63043759 Ry
     Harris-Foulkes estimate   =    -734.63241504 Ry
     estimated scf accuracy    <       0.02003892 Ry

     iteration # 11     ecut=    70.00 Ry     beta= 0.70
     Davidson diagonalization with overlap
     ethr =  9.59E-06,  avg # of iterations =  1.0

     negative rho (up, down):  6.367E-04 0.000E+00

     total cpu time spent up to now is      726.6 secs

     total energy              =    -734.63029790 Ry
     Harris-Foulkes estimate   =    -734.63149415 Ry
     estimated scf accuracy    <       0.01631114 Ry

     iteration # 12     ecut=    70.00 Ry     beta= 0.70
     Davidson diagonalization with overlap
     ethr =  7.80E-06,  avg # of iterations =  1.0

     negative rho (up, down):  6.415E-04 0.000E+00

     total cpu time spent up to now is      781.1 secs

     total energy              =    -734.63077309 Ry
     Harris-Foulkes estimate   =    -734.63113954 Ry
     estimated scf accuracy    <       0.00552653 Ry

     iteration # 13     ecut=    70.00 Ry     beta= 0.70
     Davidson diagonalization with overlap
     ethr =  2.64E-06,  avg # of iterations =  1.0

     negative rho (up, down):  6.630E-04 0.000E+00

     total cpu time spent up to now is      835.5 secs

     total energy              =    -734.63086036 Ry
     Harris-Foulkes estimate   =    -734.63101561 Ry
     estimated scf accuracy    <       0.00157939 Ry

     iteration # 14     ecut=    70.00 Ry     beta= 0.70
     Davidson diagonalization with overlap
     ethr =  7.56E-07,  avg # of iterations =  2.0

     negative rho (up, down):  6.623E-04 0.000E+00

     total cpu time spent up to now is      890.4 secs

     total energy              =    -734.63089321 Ry
     Harris-Foulkes estimate   =    -734.63106335 Ry
     estimated scf accuracy    <       0.00430427 Ry

     iteration # 15     ecut=    70.00 Ry     beta= 0.70
     Davidson diagonalization with overlap
     ethr =  7.56E-07,  avg # of iterations =  1.0

     negative rho (up, down):  6.609E-04 0.000E+00

     total cpu time spent up to now is      944.7 secs

     total energy              =    -734.63097307 Ry
     Harris-Foulkes estimate   =    -734.63097614 Ry
     estimated scf accuracy    <       0.00000855 Ry

     iteration # 16     ecut=    70.00 Ry     beta= 0.70
     Davidson diagonalization with overlap
     ethr =  4.09E-09,  avg # of iterations =  3.0

     negative rho (up, down):  6.609E-04 0.000E+00

     total cpu time spent up to now is     1010.2 secs

     total energy              =    -734.63097385 Ry
     Harris-Foulkes estimate   =    -734.63097672 Ry
     estimated scf accuracy    <       0.00003764 Ry

     iteration # 17     ecut=    70.00 Ry     beta= 0.70
     Davidson diagonalization with overlap
     ethr =  4.09E-09,  avg # of iterations =  2.0

     negative rho (up, down):  6.606E-04 0.000E+00

     total cpu time spent up to now is     1065.4 secs

     total energy              =    -734.63097545 Ry
     Harris-Foulkes estimate   =    -734.63097637 Ry
     estimated scf accuracy    <       0.00003543 Ry

     iteration # 18     ecut=    70.00 Ry     beta= 0.70
     Davidson diagonalization with overlap
     ethr =  4.09E-09,  avg # of iterations =  1.0

     negative rho (up, down):  6.609E-04 0.000E+00

     total cpu time spent up to now is     1119.8 secs

     total energy              =    -734.63097566 Ry
     Harris-Foulkes estimate   =    -734.63097592 Ry
     estimated scf accuracy    <       0.00000412 Ry

     iteration # 19     ecut=    70.00 Ry     beta= 0.70
     Davidson diagonalization with overlap
     ethr =  1.97E-09,  avg # of iterations =  1.0

     negative rho (up, down):  6.611E-04 0.000E+00

     total cpu time spent up to now is     1174.0 secs

     End of self-consistent calculation

          k = 0.0000 0.0000 0.0000 ( 87777 PWs)   bands (ev):

   -19.8295 -18.9917 -18.9721 -18.9030 -18.8935 -18.8389 -18.7371 -17.1626
   -17.1354 -17.1180 -17.0799 -17.0760 -16.7982 -16.3146 -16.2999 -16.1776
   -16.1688 -16.1542 -15.7483 -14.4017 -14.3570 -14.1108 -14.0308 -14.0231
   -13.5659 -13.1510 -13.1501 -13.0707 -12.9289 -12.9179 -12.6052 -12.2468
   -12.2444 -11.7022 -11.6033 -11.5879 -11.1376 -10.8588 -10.8498  -9.8097
    -9.4953  -9.3521  -9.3464  -9.2364  -9.2266  -9.2248  -9.2137  -9.0264
    -9.0245  -9.0098  -8.9184  -8.7002  -8.6888  -8.4324  -7.8787  -7.8694
    -7.7297  -7.6313  -7.6285  -7.5232  -7.5152  -6.8494  -6.8424  -6.8375
    -6.7889  -6.7802  -6.7094  -6.7069  -6.6078  -6.5986  -6.5659  -6.5637
    -6.5620  -6.5165  -6.3748  -6.3635  -6.1424  -5.5973  -5.5919  -5.0140
    -4.9484  -4.8748  -4.8656  -4.7597  -4.7336  -4.7268  -4.6384  -4.5353
    -4.5125  -4.0955  -3.8559  -3.8460  -3.8033  -3.7977  -3.7824  -3.6223
    -3.6184  -2.9236  -1.8834  -1.8276  -1.8203  -1.7371  -1.7094  -1.0167
    -0.6216  -0.6191   0.9066   0.9410   0.9479   1.0695   1.1097   1.5422
     2.5545   2.7618   2.7983   2.8333   2.8821   2.9373   3.3536   3.6104
     3.7062   3.8078   3.8117   3.8305   3.9963   4.2077

     occupation numbers 
     1.0000   1.0000   1.0000   1.0000   1.0000   1.0000   1.0000   1.0000
     1.0000   1.0000   1.0000   1.0000   1.0000   1.0000   1.0000   1.0000
     1.0000   1.0000   1.0000   1.0000   1.0000   1.0000   1.0000   1.0000
     1.0000   1.0000   1.0000   1.0000   1.0000   1.0000   1.0000   1.0000
     1.0000   1.0000   1.0000   1.0000   1.0000   1.0000   1.0000   1.0000
     1.0000   1.0000   1.0000   1.0000   1.0000   1.0000   1.0000   1.0000
     1.0000   1.0000   1.0000   1.0000   1.0000   1.0000   1.0000   1.0000
     1.0000   1.0000   1.0000   1.0000   1.0000   1.0000   1.0000   1.0000
     1.0000   1.0000   1.0000   1.0000   1.0000   1.0000   1.0000   1.0000
     1.0000   1.0000   1.0000   1.0000   1.0000   1.0000   1.0000   1.0000
     1.0000   1.0000   1.0000   1.0000   1.0000   1.0000   1.0000   1.0000
     1.0000   1.0000   1.0000   1.0000   1.0000   1.0000   1.0000   1.0000
     1.0000   1.0000   1.0000   1.0000   1.0000   1.0000   1.0000   1.0000
     0.2982   0.2018   0.0000   0.0000   0.0000   0.0000   0.0000   0.0000
     0.0000   0.0000   0.0000   0.0000   0.0000   0.0000   0.0000   0.0000
     0.0000   0.0000   0.0000   0.0000   0.0000   0.0000

     the Fermi energy is    -0.6238 ev

!    total energy              =    -734.63097531 Ry
     Harris-Foulkes estimate   =    -734.63097579 Ry
     estimated scf accuracy    <       0.00000059 Ry

     The total energy is the sum of the following terms:

     one-electron contribution =   -2522.26671797 Ry
     hartree contribution      =    1316.95279463 Ry
     xc contribution           =    -276.07772580 Ry
     ewald contribution        =     746.76127861 Ry
     smearing contrib. (-TS)   =      -0.00060478 Ry

     convergence has been achieved in  19 iterations

     Writing output data file distance-1.8.save/

     init_run     :     48.23s CPU     49.52s WALL (       1 calls)
     electrons    :   1091.64s CPU   1123.46s WALL (       1 calls)

     Called by init_run:
     wfcinit      :     23.40s CPU     23.69s WALL (       1 calls)
     wfcinit:atom :      0.03s CPU      0.05s WALL (       1 calls)
     wfcinit:wfcr :     23.20s CPU     23.42s WALL (       1 calls)
     potinit      :     11.37s CPU     11.77s WALL (       1 calls)
     hinit0       :      8.20s CPU      8.25s WALL (       1 calls)

     Called by electrons:
     c_bands      :    654.54s CPU    657.71s WALL (      19 calls)
     sum_band     :    218.82s CPU    229.87s WALL (      19 calls)
     v_of_rho     :    131.44s CPU    138.67s WALL (      20 calls)
     v_h          :      1.56s CPU      1.63s WALL (      20 calls)
     v_xc         :    129.88s CPU    137.04s WALL (      20 calls)
     newd         :     91.30s CPU    102.42s WALL (      20 calls)
     mix_rho      :      4.24s CPU      4.32s WALL (      19 calls)

     Called by c_bands:
     init_us_2    :      1.97s CPU      2.02s WALL (      39 calls)
     cegterg      :    649.94s CPU    653.08s WALL (      19 calls)

     Called by sum_band:
     sum_band:bec :      0.01s CPU      0.01s WALL (      19 calls)
     addusdens    :    134.96s CPU    145.57s WALL (      19 calls)

     Called by *egterg:
     h_psi        :    351.87s CPU    354.23s WALL (      87 calls)
     s_psi        :    118.14s CPU    118.21s WALL (      87 calls)
     g_psi        :      0.34s CPU      0.34s WALL (      67 calls)
     cdiaghg      :      5.91s CPU      5.91s WALL (      86 calls)
     cegterg:over :     77.61s CPU     77.65s WALL (      67 calls)
     cegterg:upda :     45.83s CPU     46.07s WALL (      67 calls)
     cegterg:last :     33.81s CPU     33.83s WALL (      19 calls)

     Called by h_psi:
     h_psi:pot    :    351.43s CPU    353.40s WALL (      87 calls)
     h_psi:calbec :    117.81s CPU    117.88s WALL (      87 calls)
     vloc_psi     :    115.79s CPU    117.66s WALL (      87 calls)
     add_vuspsi   :    117.83s CPU    117.87s WALL (      87 calls)

     General routines
     calbec       :    168.51s CPU    168.60s WALL (     106 calls)
     fft          :     76.53s CPU     79.45s WALL (    1258 calls)
     ffts         :      0.85s CPU      0.86s WALL (      39 calls)
     fftw         :    123.06s CPU    125.06s WALL (   13506 calls)
     interpolate  :      1.97s CPU      2.00s WALL (      20 calls)

     Parallel routines
     fft_scatt_xy :     35.65s CPU     36.07s WALL (   14803 calls)
     fft_scatt_yz :     68.40s CPU     71.96s WALL (   14803 calls)

     PWSCF        :  19m 1.12s CPU  19m34.45s WALL


   This run was terminated on:  19:11:18  25Jul2022            

=------------------------------------------------------------------------------=
   JOB DONE.
=------------------------------------------------------------------------------=
