
     Program PWSCF v.6.4.1 starts on 25Dec2022 at  6:52:23 

     This program is part of the open-source Quantum ESPRESSO suite
     for quantum simulation of materials; please cite
         "P. Giannozzi et al., J. Phys.:Condens. Matter 21 395502 (2009);
         "P. Giannozzi et al., J. Phys.:Condens. Matter 29 465901 (2017);
          URL http://www.quantum-espresso.org", 
     in publications or presentations arising from this work. More details at
     http://www.quantum-espresso.org/quote

     Parallel version (MPI), running on     6 processors

     MPI processes distributed on     1 nodes
     R & G space division:  proc/nbgrp/npool/nimage =       6
     Reading input from distance-3.5.in

     Current dimensions of program PWSCF are:
     Max number of different atomic species (ntypx) = 10
     Max number of k-points (npk) =  40000
     Max angular momentum in pseudopotentials (lmaxx) =  3

     IMPORTANT: XC functional enforced from input :
     Exchange-correlation      = RVV10 ( 1  4 13  4 3 0)
     Any further DFT definition will be discarded
     Please, verify this is what you really want

               file H.pbe-rrkjus.UPF: wavefunction(s)  1S renormalized

     Subspace diagonalization in iterative solution of the eigenvalue problem:
     a serial algorithm will be used


     Parallelization info
     --------------------
     sticks:   dense  smooth     PW     G-vecs:    dense   smooth      PW
     Min        3051    1746    432               270999   117096   14629
     Max        3053    1747    437               271001   117099   14630
     Sum       18313   10477   2611              1626001   702581   87777



     bravais-lattice index     =            4
     lattice parameter (alat)  =      23.2937  a.u.
     unit-cell volume          =    8879.8548 (a.u.)^3
     number of atoms/cell      =           52
     number of atomic types    =            3
     number of electrons       =       216.00
     number of Kohn-Sham states=          130
     kinetic-energy cutoff     =      70.0000  Ry
     charge density cutoff     =     490.0000  Ry
     convergence threshold     =      1.0E-06
     mixing beta               =       0.7000
     number of iterations used =            8  plain     mixing
     Exchange-correlation      = RVV10 ( 1  4 13  4 3 0)

     celldm(1)=  23.293684  celldm(2)=   0.000000  celldm(3)=   0.811261
     celldm(4)=   0.000000  celldm(5)=   0.000000  celldm(6)=   0.000000

     crystal axes: (cart. coord. in units of alat)
               a(1) = (   1.000000   0.000000   0.000000 )  
               a(2) = (  -0.500000   0.866025   0.000000 )  
               a(3) = (   0.000000   0.000000   0.811261 )  

     reciprocal axes: (cart. coord. in units 2 pi/alat)
               b(1) = (  1.000000  0.577350 -0.000000 )  
               b(2) = (  0.000000  1.154701  0.000000 )  
               b(3) = (  0.000000 -0.000000  1.232649 )  


     PseudoPot. # 1 for H  read from file:
     /home/cristian/Escritorio/Proyecto_Grafeno/pseudopotenciales/H.pbe-rrkjus.UPF
     MD5 check sum: 7cc9d459525c9a0585f487a71c3c9563
     Pseudo is Ultrasoft, Zval =  1.0
     Generated by new atomic code, or converted to UPF format
     Using radial grid of 1061 points,  2 beta functions with: 
                l(1) =   0
                l(2) =   0
     Q(r) pseudized with 0 coefficients 


     PseudoPot. # 2 for C  read from file:
     /home/cristian/Escritorio/Proyecto_Grafeno/pseudopotenciales/C.pbe-n-rrkjus_psl.1.0.0.UPF
     MD5 check sum: 1fdd950c42eb37d8afe3dd2f8d12311e
     Pseudo is Ultrasoft + core correction, Zval =  4.0
     Generated using "atomic" code by A. Dal Corso v.6.3MaX
     Using radial grid of 1073 points,  4 beta functions with: 
                l(1) =   0
                l(2) =   0
                l(3) =   1
                l(4) =   1
     Q(r) pseudized with 0 coefficients 


     PseudoPot. # 3 for Ni read from file:
     /home/cristian/Escritorio/Proyecto_Grafeno/pseudopotenciales/Ni.pbe-spn-rrkjus_psl.1.0.0.UPF
     MD5 check sum: 8b3fc9aac6dafe35f580d41bb18c3945
     Pseudo is Ultrasoft + core correction, Zval = 18.0
     Generated using "atomic" code by A. Dal Corso v.6.3
     Using radial grid of 1195 points,  6 beta functions with: 
                l(1) =   0
                l(2) =   0
                l(3) =   1
                l(4) =   1
                l(5) =   2
                l(6) =   2
     Q(r) pseudized with 0 coefficients 


     vdW kernel table read from file rVV10_kernel_table
     MD5 check sum: b8e2538accc0c0b3206b45ba4daaba6c

     atomic species   valence    mass     pseudopotential
        H              1.00     1.00794     H ( 1.00)
        C              4.00    12.01070     C ( 1.00)
        Ni            18.00    58.69340     Ni( 1.00)

     Starting magnetic structure 
     atomic species   magnetization
        H            0.500
        C            0.300
        Ni           0.800

     No symmetry found


                                    s                        frac. trans.

      isym =  1     identity                                     

 cryst.   s( 1) = (     1          0          0      )
                  (     0          1          0      )
                  (     0          0          1      )

 cart.    s( 1) = (  1.0000000  0.0000000  0.0000000 )
                  (  0.0000000  1.0000000  0.0000000 )
                  (  0.0000000  0.0000000  1.0000000 )


     point group C_1 (1)    
     there are  1 classes
     the character table:

       E    
A      1.00

     the symmetry operations in each class and the name of the first element:

     E        1
          identity                                               

   Cartesian axes

     site n.     atom                  positions (alat units)
         1           H   tau(   1) = (   0.2666667   0.4618802   0.2839414  )
         2           H   tau(   2) = (   0.2666667   0.4618802   0.3449541  )
         3           C   tau(   3) = (   0.0000000   0.0000000   0.0000000  )
         4           C   tau(   4) = (   0.0000000   0.1154701   0.0000000  )
         5           C   tau(   5) = (  -0.1000000   0.1732051   0.0000000  )
         6           C   tau(   6) = (  -0.1000000   0.2886751   0.0000000  )
         7           C   tau(   7) = (  -0.2000000   0.3464102   0.0000000  )
         8           C   tau(   8) = (  -0.2000000   0.4618802   0.0000000  )
         9           C   tau(   9) = (  -0.3000000   0.5196152   0.0000000  )
        10           C   tau(  10) = (  -0.3000000   0.6350853   0.0000000  )
        11           C   tau(  11) = (  -0.4000000   0.6928203   0.0000000  )
        12           C   tau(  12) = (  -0.4000000   0.8082904   0.0000000  )
        13           C   tau(  13) = (   0.2000000   0.0000000   0.0000000  )
        14           C   tau(  14) = (   0.2000000   0.1154701   0.0000000  )
        15           C   tau(  15) = (   0.1000000   0.1732051   0.0000000  )
        16           C   tau(  16) = (   0.1000000   0.2886751   0.0000000  )
        17           C   tau(  17) = (   0.0000000   0.3464102   0.0000000  )
        18           C   tau(  18) = (   0.0000000   0.4618802   0.0000000  )
        19           C   tau(  19) = (  -0.1000000   0.5196152   0.0000000  )
        20           C   tau(  20) = (  -0.1000000   0.6350853   0.0000000  )
        21           C   tau(  21) = (  -0.2000000   0.6928203   0.0000000  )
        22           C   tau(  22) = (  -0.2000000   0.8082904   0.0000000  )
        23           C   tau(  23) = (   0.4000000   0.0000000   0.0000000  )
        24           C   tau(  24) = (   0.4000000   0.1154701   0.0000000  )
        25           C   tau(  25) = (   0.3000000   0.1732051   0.0000000  )
        26           C   tau(  26) = (   0.3000000   0.2886751   0.0000000  )
        27           C   tau(  27) = (   0.2000000   0.3464102   0.0000000  )
        28           Ni  tau(  28) = (   0.2000000   0.4618802   0.0000000  )
        29           C   tau(  29) = (   0.1000000   0.5196152   0.0000000  )
        30           C   tau(  30) = (   0.1000000   0.6350853   0.0000000  )
        31           C   tau(  31) = (   0.0000000   0.6928203   0.0000000  )
        32           C   tau(  32) = (   0.0000000   0.8082904   0.0000000  )
        33           C   tau(  33) = (   0.6000000   0.0000000   0.0000000  )
        34           C   tau(  34) = (   0.6000000   0.1154701   0.0000000  )
        35           C   tau(  35) = (   0.5000000   0.1732051   0.0000000  )
        36           C   tau(  36) = (   0.5000000   0.2886751   0.0000000  )
        37           C   tau(  37) = (   0.4000000   0.3464102   0.0000000  )
        38           C   tau(  38) = (   0.4000000   0.4618802   0.0000000  )
        39           C   tau(  39) = (   0.3000000   0.5196152   0.0000000  )
        40           C   tau(  40) = (   0.3000000   0.6350853   0.0000000  )
        41           C   tau(  41) = (   0.2000000   0.6928203   0.0000000  )
        42           C   tau(  42) = (   0.2000000   0.8082904   0.0000000  )
        43           C   tau(  43) = (   0.8000000   0.0000000   0.0000000  )
        44           C   tau(  44) = (   0.8000000   0.1154701   0.0000000  )
        45           C   tau(  45) = (   0.7000000   0.1732051   0.0000000  )
        46           C   tau(  46) = (   0.7000000   0.2886751   0.0000000  )
        47           C   tau(  47) = (   0.6000000   0.3464102   0.0000000  )
        48           C   tau(  48) = (   0.6000000   0.4618802   0.0000000  )
        49           C   tau(  49) = (   0.5000000   0.5196152   0.0000000  )
        50           C   tau(  50) = (   0.5000000   0.6350853   0.0000000  )
        51           C   tau(  51) = (   0.4000000   0.6928203   0.0000000  )
        52           C   tau(  52) = (   0.4000000   0.8082904   0.0000000  )

   Crystallographic axes

     site n.     atom                  positions (cryst. coord.)
         1           H   tau(   1) = (  0.5333333  0.5333333  0.3500000  )
         2           H   tau(   2) = (  0.5333333  0.5333333  0.4252072  )
         3           C   tau(   3) = (  0.0000000  0.0000000  0.0000000  )
         4           C   tau(   4) = (  0.0666667  0.1333333  0.0000000  )
         5           C   tau(   5) = (  0.0000000  0.2000000  0.0000000  )
         6           C   tau(   6) = (  0.0666667  0.3333333  0.0000000  )
         7           C   tau(   7) = (  0.0000000  0.4000000  0.0000000  )
         8           C   tau(   8) = (  0.0666667  0.5333333  0.0000000  )
         9           C   tau(   9) = (  0.0000000  0.6000000  0.0000000  )
        10           C   tau(  10) = (  0.0666667  0.7333333  0.0000000  )
        11           C   tau(  11) = (  0.0000000  0.8000000  0.0000000  )
        12           C   tau(  12) = (  0.0666667  0.9333333  0.0000000  )
        13           C   tau(  13) = (  0.2000000  0.0000000  0.0000000  )
        14           C   tau(  14) = (  0.2666667  0.1333333  0.0000000  )
        15           C   tau(  15) = (  0.2000000  0.2000000  0.0000000  )
        16           C   tau(  16) = (  0.2666667  0.3333333  0.0000000  )
        17           C   tau(  17) = (  0.2000000  0.4000000  0.0000000  )
        18           C   tau(  18) = (  0.2666667  0.5333333  0.0000000  )
        19           C   tau(  19) = (  0.2000000  0.6000000  0.0000000  )
        20           C   tau(  20) = (  0.2666667  0.7333333  0.0000000  )
        21           C   tau(  21) = (  0.2000000  0.8000000  0.0000000  )
        22           C   tau(  22) = (  0.2666667  0.9333333  0.0000000  )
        23           C   tau(  23) = (  0.4000000  0.0000000  0.0000000  )
        24           C   tau(  24) = (  0.4666667  0.1333333  0.0000000  )
        25           C   tau(  25) = (  0.4000000  0.2000000  0.0000000  )
        26           C   tau(  26) = (  0.4666667  0.3333333  0.0000000  )
        27           C   tau(  27) = (  0.4000000  0.4000000  0.0000000  )
        28           Ni  tau(  28) = (  0.4666667  0.5333333  0.0000000  )
        29           C   tau(  29) = (  0.4000000  0.6000000  0.0000000  )
        30           C   tau(  30) = (  0.4666667  0.7333333  0.0000000  )
        31           C   tau(  31) = (  0.4000000  0.8000000  0.0000000  )
        32           C   tau(  32) = (  0.4666667  0.9333333  0.0000000  )
        33           C   tau(  33) = (  0.6000000  0.0000000  0.0000000  )
        34           C   tau(  34) = (  0.6666667  0.1333333  0.0000000  )
        35           C   tau(  35) = (  0.6000000  0.2000000  0.0000000  )
        36           C   tau(  36) = (  0.6666667  0.3333333  0.0000000  )
        37           C   tau(  37) = (  0.6000000  0.4000000  0.0000000  )
        38           C   tau(  38) = (  0.6666667  0.5333333  0.0000000  )
        39           C   tau(  39) = (  0.6000000  0.6000000  0.0000000  )
        40           C   tau(  40) = (  0.6666667  0.7333333  0.0000000  )
        41           C   tau(  41) = (  0.6000000  0.8000000  0.0000000  )
        42           C   tau(  42) = (  0.6666667  0.9333333  0.0000000  )
        43           C   tau(  43) = (  0.8000000  0.0000000  0.0000000  )
        44           C   tau(  44) = (  0.8666667  0.1333333  0.0000000  )
        45           C   tau(  45) = (  0.8000000  0.2000000  0.0000000  )
        46           C   tau(  46) = (  0.8666667  0.3333333  0.0000000  )
        47           C   tau(  47) = (  0.8000000  0.4000000  0.0000000  )
        48           C   tau(  48) = (  0.8666667  0.5333333  0.0000000  )
        49           C   tau(  49) = (  0.8000000  0.6000000  0.0000000  )
        50           C   tau(  50) = (  0.8666667  0.7333333  0.0000000  )
        51           C   tau(  51) = (  0.8000000  0.8000000  0.0000000  )
        52           C   tau(  52) = (  0.8666667  0.9333333  0.0000000  )

     number of k points=     1  Marzari-Vanderbilt smearing, width (Ry)=  0.0010
                       cart. coord. in units 2pi/alat
        k(    1) = (   0.0000000   0.0000000   0.0000000), wk =   1.0000000

                       cryst. coord.
        k(    1) = (   0.0000000   0.0000000   0.0000000), wk =   1.0000000

     Dense  grid:  1626001 G-vectors     FFT dimensions: ( 180, 180, 135)

     Smooth grid:   702581 G-vectors     FFT dimensions: ( 125, 125, 108)

     Dynamical RAM for                 wfc:      29.03 MB

     Dynamical RAM for     wfc (w. buffer):      87.10 MB

     Dynamical RAM for           str. fact:      12.41 MB

     Dynamical RAM for           local pot:       0.00 MB

     Dynamical RAM for          nlocal pot:      92.46 MB

     Dynamical RAM for                qrad:      19.73 MB

     Dynamical RAM for          rho,v,vnew:      58.92 MB

     Dynamical RAM for               rhoin:      19.64 MB

     Dynamical RAM for            rho*nmix:     132.32 MB

     Dynamical RAM for           G-vectors:      16.40 MB

     Dynamical RAM for          h,s,v(r/c):      12.38 MB

     Dynamical RAM for          <psi|beta>:       0.82 MB

     Dynamical RAM for                 psi:     116.14 MB

     Dynamical RAM for                hpsi:     116.14 MB

     Dynamical RAM for                spsi:     116.14 MB

     Dynamical RAM for      wfcinit/wfcrot:      93.90 MB

     Dynamical RAM for           addusdens:     975.89 MB

     Estimated static dynamical RAM per process >     489.64 MB

     Estimated max dynamical RAM per process >       1.43 GB

     Estimated total dynamical RAM >       8.59 GB
     Generating pointlists ...
     new r_m :   0.0252 (alat units)  0.5862 (a.u.) for type    1
     new r_m :   0.0476 (alat units)  1.1095 (a.u.) for type    2
     new r_m :   0.0476 (alat units)  1.1095 (a.u.) for type    3

     Check: negative core charge=   -0.000002

     Initial potential from superposition of free atoms

     starting charge  215.80530, renormalised to  216.00000

     negative rho (up, down):  1.291E-04 1.354E-02


---------------------------------------------------------------------------------
Carrying out rVV10 run using the following parameters:
Nqs =      20    Nr_points =    1024   r_max =   100.000
b_value =  6.30000    beta =  0.00901
     q_mesh =  0.00010000  0.00030000  0.00058939  0.00100810
               0.00161396  0.00249058  0.00375900  0.00559430
               0.00824984  0.01209221  0.01765183  0.02569619
               0.03733578  0.05417739  0.07854596  0.11380545
               0.16482331  0.23864234  0.34545298  0.50000000

Gradients computed in Reciprocal space

---------------------------------------------------------------------------------


     Starting wfcs are  208 randomized atomic wfcs

     total cpu time spent up to now is       69.5 secs

     Self-consistent Calculation

     iteration #  1     ecut=    70.00 Ry     beta= 0.70
     Davidson diagonalization with overlap
     ethr =  1.00E-02,  avg # of iterations =  4.0

     negative rho (up, down):  2.439E-04 1.203E-02

     total cpu time spent up to now is      188.4 secs

     total energy              =    -946.62464491 Ry
     Harris-Foulkes estimate   =    -949.75381965 Ry
     estimated scf accuracy    <      14.27073368 Ry

     total magnetization       =     6.00 Bohr mag/cell
     absolute magnetization    =     6.75 Bohr mag/cell

     iteration #  2     ecut=    70.00 Ry     beta= 0.70
     Davidson diagonalization with overlap
     ethr =  6.61E-03,  avg # of iterations =  4.0

     negative rho (up, down):  1.416E-03 1.278E-01

     total cpu time spent up to now is      297.9 secs

     total energy              =    -946.24165066 Ry
     Harris-Foulkes estimate   =    -957.55090071 Ry
     estimated scf accuracy    <      32.72191818 Ry

     total magnetization       =     4.00 Bohr mag/cell
     absolute magnetization    =     5.22 Bohr mag/cell

     iteration #  3     ecut=    70.00 Ry     beta= 0.70
     Davidson diagonalization with overlap
     ethr =  6.61E-03,  avg # of iterations =  4.5

     negative rho (up, down):  5.436E-02 4.488E-01

     total cpu time spent up to now is      398.1 secs

     total energy              =    -957.02051367 Ry
     Harris-Foulkes estimate   =    -954.47903594 Ry
     estimated scf accuracy    <     134.14404949 Ry

     total magnetization       =     2.00 Bohr mag/cell
     absolute magnetization    =    18.16 Bohr mag/cell

     iteration #  4     ecut=    70.00 Ry     beta= 0.70
     Davidson diagonalization with overlap
     ethr =  6.61E-03,  avg # of iterations =  2.5

     negative rho (up, down):  8.666E-02 5.282E-01

     total cpu time spent up to now is      485.6 secs

     total energy              =    -944.98090624 Ry
     Harris-Foulkes estimate   =    -958.27037248 Ry
     estimated scf accuracy    <     382.18528623 Ry

     total magnetization       =     0.00 Bohr mag/cell
     absolute magnetization    =    28.71 Bohr mag/cell

     iteration #  5     ecut=    70.00 Ry     beta= 0.70
     Davidson diagonalization with overlap
     ethr =  6.61E-03,  avg # of iterations =  3.5

     negative rho (up, down):  3.175E-02 4.550E-01

     total cpu time spent up to now is      587.0 secs

     total energy              =    -953.08106263 Ry
     Harris-Foulkes estimate   =    -952.05895032 Ry
     estimated scf accuracy    <      21.44109781 Ry

     total magnetization       =     3.89 Bohr mag/cell
     absolute magnetization    =     8.09 Bohr mag/cell

     iteration #  6     ecut=    70.00 Ry     beta= 0.70
     Davidson diagonalization with overlap
     ethr =  6.61E-03,  avg # of iterations =  3.0

     negative rho (up, down):  6.539E-02 5.017E-01

     total cpu time spent up to now is      685.0 secs

     total energy              =    -942.67672525 Ry
     Harris-Foulkes estimate   =    -961.43166604 Ry
     estimated scf accuracy    <     559.74386188 Ry

     total magnetization       =     2.00 Bohr mag/cell
     absolute magnetization    =    36.79 Bohr mag/cell

     iteration #  7     ecut=    70.00 Ry     beta= 0.70
     Davidson diagonalization with overlap
     ethr =  6.61E-03,  avg # of iterations =  2.5

     negative rho (up, down):  3.412E-02 4.382E-01

     total cpu time spent up to now is      785.7 secs

     total energy              =    -950.82634397 Ry
     Harris-Foulkes estimate   =    -951.86595795 Ry
     estimated scf accuracy    <      43.00410460 Ry

     total magnetization       =     2.00 Bohr mag/cell
     absolute magnetization    =    11.08 Bohr mag/cell

     iteration #  8     ecut=    70.00 Ry     beta= 0.70
     Davidson diagonalization with overlap
     ethr =  6.61E-03,  avg # of iterations =  2.0

     negative rho (up, down):  6.552E-02 3.819E-01

     total cpu time spent up to now is      876.7 secs

     total energy              =    -952.94630903 Ry
     Harris-Foulkes estimate   =    -952.63828502 Ry
     estimated scf accuracy    <      57.01480036 Ry

     total magnetization       =    -0.00 Bohr mag/cell
     absolute magnetization    =    11.07 Bohr mag/cell

     iteration #  9     ecut=    70.00 Ry     beta= 0.70
     Davidson diagonalization with overlap
     ethr =  6.61E-03,  avg # of iterations =  1.0

     negative rho (up, down):  7.618E-02 4.255E-01

     total cpu time spent up to now is      961.0 secs

     total energy              =    -950.51515521 Ry
     Harris-Foulkes estimate   =    -952.98686126 Ry
     estimated scf accuracy    <      77.64961487 Ry

     total magnetization       =     0.00 Bohr mag/cell
     absolute magnetization    =    13.03 Bohr mag/cell

     iteration # 10     ecut=    70.00 Ry     beta= 0.70
     Davidson diagonalization with overlap
     ethr =  6.61E-03,  avg # of iterations =  2.0

     negative rho (up, down):  2.813E-02 3.158E-01

     total cpu time spent up to now is     1050.4 secs

     total energy              =    -951.79550623 Ry
     Harris-Foulkes estimate   =    -951.78290600 Ry
     estimated scf accuracy    <       3.46014269 Ry

     total magnetization       =    -0.00 Bohr mag/cell
     absolute magnetization    =     2.60 Bohr mag/cell

     iteration # 11     ecut=    70.00 Ry     beta= 0.70
     Davidson diagonalization with overlap
     ethr =  1.60E-03,  avg # of iterations =  2.0

     negative rho (up, down):  4.809E-02 2.551E-01

     total cpu time spent up to now is     1138.2 secs

     total energy              =    -951.82125143 Ry
     Harris-Foulkes estimate   =    -951.97758576 Ry
     estimated scf accuracy    <       7.58175191 Ry

     total magnetization       =     0.00 Bohr mag/cell
     absolute magnetization    =     3.31 Bohr mag/cell

     iteration # 12     ecut=    70.00 Ry     beta= 0.70
     Davidson diagonalization with overlap
     ethr =  1.60E-03,  avg # of iterations =  2.0

     negative rho (up, down):  4.662E-02 2.699E-01

     total cpu time spent up to now is     1223.6 secs

     total energy              =    -951.76404925 Ry
     Harris-Foulkes estimate   =    -951.91636016 Ry
     estimated scf accuracy    <       3.90129048 Ry

     total magnetization       =    -0.00 Bohr mag/cell
     absolute magnetization    =     2.47 Bohr mag/cell

     iteration # 13     ecut=    70.00 Ry     beta= 0.70
     Davidson diagonalization with overlap
     ethr =  1.60E-03,  avg # of iterations =  1.5

     negative rho (up, down):  1.324E-02 2.016E-01

     total cpu time spent up to now is     1309.6 secs

     total energy              =    -951.81698525 Ry
     Harris-Foulkes estimate   =    -951.90321344 Ry
     estimated scf accuracy    <       1.28892107 Ry

     total magnetization       =    -0.00 Bohr mag/cell
     absolute magnetization    =     1.06 Bohr mag/cell

     iteration # 14     ecut=    70.00 Ry     beta= 0.70
     Davidson diagonalization with overlap
     ethr =  5.97E-04,  avg # of iterations =  6.0

     negative rho (up, down):  1.620E-03 2.423E-01

     total cpu time spent up to now is     1399.6 secs

     total energy              =    -951.88089841 Ry
     Harris-Foulkes estimate   =    -951.88045304 Ry
     estimated scf accuracy    <       0.11685537 Ry

     total magnetization       =    -0.00 Bohr mag/cell
     absolute magnetization    =     0.62 Bohr mag/cell

     iteration # 15     ecut=    70.00 Ry     beta= 0.70
     Davidson diagonalization with overlap
     ethr =  5.41E-05,  avg # of iterations =  3.5

     negative rho (up, down):  1.937E-03 2.340E-01

     total cpu time spent up to now is     1489.6 secs

     total energy              =    -951.88237823 Ry
     Harris-Foulkes estimate   =    -951.88940277 Ry
     estimated scf accuracy    <       0.12722968 Ry

     total magnetization       =    -0.00 Bohr mag/cell
     absolute magnetization    =     0.57 Bohr mag/cell

     iteration # 16     ecut=    70.00 Ry     beta= 0.70
     Davidson diagonalization with overlap
     ethr =  5.41E-05,  avg # of iterations =  5.0

     negative rho (up, down):  1.887E-03 2.368E-01

     total cpu time spent up to now is     1577.0 secs

     total energy              =    -951.88908737 Ry
     Harris-Foulkes estimate   =    -951.88822835 Ry
     estimated scf accuracy    <       0.18153093 Ry

     total magnetization       =    -0.00 Bohr mag/cell
     absolute magnetization    =     0.71 Bohr mag/cell

     iteration # 17     ecut=    70.00 Ry     beta= 0.70
     Davidson diagonalization with overlap
     ethr =  5.41E-05,  avg # of iterations =  1.0

     negative rho (up, down):  2.481E-03 2.455E-01

     total cpu time spent up to now is     1661.3 secs

     total energy              =    -951.89891664 Ry
     Harris-Foulkes estimate   =    -951.88939948 Ry
     estimated scf accuracy    <       0.22193313 Ry

     total magnetization       =    -0.00 Bohr mag/cell
     absolute magnetization    =     0.77 Bohr mag/cell

     iteration # 18     ecut=    70.00 Ry     beta= 0.70
     Davidson diagonalization with overlap
     ethr =  5.41E-05,  avg # of iterations =  2.0

     negative rho (up, down):  9.280E-03 2.826E-01

     total cpu time spent up to now is     1752.1 secs

     total energy              =    -951.88170660 Ry
     Harris-Foulkes estimate   =    -951.91362758 Ry
     estimated scf accuracy    <       1.53092259 Ry

     total magnetization       =     0.00 Bohr mag/cell
     absolute magnetization    =     1.82 Bohr mag/cell

     iteration # 19     ecut=    70.00 Ry     beta= 0.70
     Davidson diagonalization with overlap
     ethr =  5.41E-05,  avg # of iterations =  2.0

     negative rho (up, down):  7.920E-03 2.580E-01

     total cpu time spent up to now is     1839.8 secs

     total energy              =    -951.87837878 Ry
     Harris-Foulkes estimate   =    -951.88791070 Ry
     estimated scf accuracy    <       0.47811572 Ry

     total magnetization       =    -0.00 Bohr mag/cell
     absolute magnetization    =     1.01 Bohr mag/cell

     iteration # 20     ecut=    70.00 Ry     beta= 0.70
     Davidson diagonalization with overlap
     ethr =  5.41E-05,  avg # of iterations =  1.5

     negative rho (up, down):  4.215E-03 2.713E-01

     total cpu time spent up to now is     1927.4 secs

     total energy              =    -951.88320192 Ry
     Harris-Foulkes estimate   =    -951.88503304 Ry
     estimated scf accuracy    <       0.30193025 Ry

     total magnetization       =     0.00 Bohr mag/cell
     absolute magnetization    =     0.89 Bohr mag/cell

     iteration # 21     ecut=    70.00 Ry     beta= 0.70
     Davidson diagonalization with overlap
     ethr =  5.41E-05,  avg # of iterations =  1.5

     negative rho (up, down):  5.425E-03 2.197E-01

     total cpu time spent up to now is     2012.6 secs

     total energy              =    -951.88274892 Ry
     Harris-Foulkes estimate   =    -951.88506046 Ry
     estimated scf accuracy    <       0.13848174 Ry

     total magnetization       =     0.00 Bohr mag/cell
     absolute magnetization    =     0.53 Bohr mag/cell

     iteration # 22     ecut=    70.00 Ry     beta= 0.70
     Davidson diagonalization with overlap
     ethr =  5.41E-05,  avg # of iterations =  4.0

     negative rho (up, down):  3.317E-03 1.587E-01

     total cpu time spent up to now is     2100.2 secs

     total energy              =    -951.88287383 Ry
     Harris-Foulkes estimate   =    -951.88757136 Ry
     estimated scf accuracy    <       0.08145968 Ry

     total magnetization       =     0.00 Bohr mag/cell
     absolute magnetization    =     0.33 Bohr mag/cell

     iteration # 23     ecut=    70.00 Ry     beta= 0.70
     Davidson diagonalization with overlap
     ethr =  3.77E-05,  avg # of iterations =  2.5

     negative rho (up, down):  3.318E-03 1.273E-01

     total cpu time spent up to now is     2188.4 secs

     total energy              =    -951.88337869 Ry
     Harris-Foulkes estimate   =    -951.88715747 Ry
     estimated scf accuracy    <       0.08028060 Ry

     total magnetization       =     0.00 Bohr mag/cell
     absolute magnetization    =     0.34 Bohr mag/cell

     iteration # 24     ecut=    70.00 Ry     beta= 0.70
     Davidson diagonalization with overlap
     ethr =  3.72E-05,  avg # of iterations =  2.0

     negative rho (up, down):  3.925E-03 1.878E-01

     total cpu time spent up to now is     2277.7 secs

     total energy              =    -951.88292617 Ry
     Harris-Foulkes estimate   =    -951.89359744 Ry
     estimated scf accuracy    <       0.23912485 Ry

     total magnetization       =     0.09 Bohr mag/cell
     absolute magnetization    =     0.69 Bohr mag/cell

     iteration # 25     ecut=    70.00 Ry     beta= 0.70
     Davidson diagonalization with overlap
     ethr =  3.72E-05,  avg # of iterations =  2.0

     negative rho (up, down):  4.185E-03 1.746E-01

     total cpu time spent up to now is     2366.4 secs

     total energy              =    -951.90004893 Ry
     Harris-Foulkes estimate   =    -951.89077173 Ry
     estimated scf accuracy    <       0.14909252 Ry

     total magnetization       =    -0.00 Bohr mag/cell
     absolute magnetization    =     0.52 Bohr mag/cell

     iteration # 26     ecut=    70.00 Ry     beta= 0.70
     Davidson diagonalization with overlap
     ethr =  3.72E-05,  avg # of iterations =  3.0

     negative rho (up, down):  9.086E-03 2.960E-01

     total cpu time spent up to now is     2461.5 secs

     total energy              =    -951.84671394 Ry
     Harris-Foulkes estimate   =    -951.92936497 Ry
     estimated scf accuracy    <       2.33591132 Ry

     total magnetization       =     0.00 Bohr mag/cell
     absolute magnetization    =     2.26 Bohr mag/cell

     iteration # 27     ecut=    70.00 Ry     beta= 0.70
     Davidson diagonalization with overlap
     ethr =  3.72E-05,  avg # of iterations =  3.5

     negative rho (up, down):  3.750E-03 2.398E-01

     total cpu time spent up to now is     2558.8 secs

     total energy              =    -951.88198044 Ry
     Harris-Foulkes estimate   =    -951.87824112 Ry
     estimated scf accuracy    <       0.07923933 Ry

     total magnetization       =    -0.00 Bohr mag/cell
     absolute magnetization    =     0.42 Bohr mag/cell

     iteration # 28     ecut=    70.00 Ry     beta= 0.70
     Davidson diagonalization with overlap
     ethr =  3.67E-05,  avg # of iterations =  2.5

     negative rho (up, down):  2.238E-03 1.906E-01

     total cpu time spent up to now is     2644.6 secs

     total energy              =    -951.88655351 Ry
     Harris-Foulkes estimate   =    -951.88420550 Ry
     estimated scf accuracy    <       0.03659206 Ry

     total magnetization       =     0.00 Bohr mag/cell
     absolute magnetization    =     0.30 Bohr mag/cell

     iteration # 29     ecut=    70.00 Ry     beta= 0.70
     Davidson diagonalization with overlap
     ethr =  1.69E-05,  avg # of iterations =  3.5

     negative rho (up, down):  2.145E-03 1.752E-01

     total cpu time spent up to now is     2731.6 secs

     total energy              =    -951.88669907 Ry
     Harris-Foulkes estimate   =    -951.88666924 Ry
     estimated scf accuracy    <       0.04431168 Ry

     total magnetization       =     0.00 Bohr mag/cell
     absolute magnetization    =     0.32 Bohr mag/cell

     iteration # 30     ecut=    70.00 Ry     beta= 0.70
     Davidson diagonalization with overlap
     ethr =  1.69E-05,  avg # of iterations =  2.0

     negative rho (up, down):  2.774E-03 2.010E-01

     total cpu time spent up to now is     2817.2 secs

     total energy              =    -951.88750208 Ry
     Harris-Foulkes estimate   =    -951.88748737 Ry
     estimated scf accuracy    <       0.08707519 Ry

     total magnetization       =     0.00 Bohr mag/cell
     absolute magnetization    =     0.45 Bohr mag/cell

     iteration # 31     ecut=    70.00 Ry     beta= 0.70
     Davidson diagonalization with overlap
     ethr =  1.69E-05,  avg # of iterations =  1.5

     negative rho (up, down):  4.103E-03 2.092E-01

     total cpu time spent up to now is     2902.2 secs

     total energy              =    -951.88786409 Ry
     Harris-Foulkes estimate   =    -951.88765480 Ry
     estimated scf accuracy    <       0.12043681 Ry

     total magnetization       =    -0.00 Bohr mag/cell
     absolute magnetization    =     0.50 Bohr mag/cell

     iteration # 32     ecut=    70.00 Ry     beta= 0.70
     Davidson diagonalization with overlap
     ethr =  1.69E-05,  avg # of iterations =  1.5

     negative rho (up, down):  5.047E-03 2.113E-01

     total cpu time spent up to now is     2987.1 secs

     total energy              =    -951.88729089 Ry
     Harris-Foulkes estimate   =    -951.88843904 Ry
     estimated scf accuracy    <       0.18184819 Ry

     total magnetization       =    -0.00 Bohr mag/cell
     absolute magnetization    =     0.61 Bohr mag/cell

     iteration # 33     ecut=    70.00 Ry     beta= 0.70
     Davidson diagonalization with overlap
     ethr =  1.69E-05,  avg # of iterations =  1.0

     negative rho (up, down):  4.023E-03 2.297E-01

     total cpu time spent up to now is     3072.1 secs

     total energy              =    -951.88645681 Ry
     Harris-Foulkes estimate   =    -951.88746448 Ry
     estimated scf accuracy    <       0.16318926 Ry

     total magnetization       =     0.00 Bohr mag/cell
     absolute magnetization    =     0.61 Bohr mag/cell

     iteration # 34     ecut=    70.00 Ry     beta= 0.70
     Davidson diagonalization with overlap
     ethr =  1.69E-05,  avg # of iterations =  1.0

     negative rho (up, down):  2.878E-03 2.424E-01

     total cpu time spent up to now is     3156.4 secs

     total energy              =    -951.88423301 Ry
     Harris-Foulkes estimate   =    -951.88662075 Ry
     estimated scf accuracy    <       0.11364878 Ry

     total magnetization       =    -0.00 Bohr mag/cell
     absolute magnetization    =     0.52 Bohr mag/cell

     iteration # 35     ecut=    70.00 Ry     beta= 0.70
     Davidson diagonalization with overlap
     ethr =  1.69E-05,  avg # of iterations =  2.0

     negative rho (up, down):  2.448E-03 1.828E-01

     total cpu time spent up to now is     3242.8 secs

     total energy              =    -951.88522364 Ry
     Harris-Foulkes estimate   =    -951.88569225 Ry
     estimated scf accuracy    <       0.03034097 Ry

     total magnetization       =     0.00 Bohr mag/cell
     absolute magnetization    =     0.23 Bohr mag/cell

     iteration # 36     ecut=    70.00 Ry     beta= 0.70
     Davidson diagonalization with overlap
     ethr =  1.40E-05,  avg # of iterations =  2.5

     negative rho (up, down):  1.163E-03 7.378E-02

     total cpu time spent up to now is     3330.7 secs

     total energy              =    -951.88735037 Ry
     Harris-Foulkes estimate   =    -951.88624223 Ry
     estimated scf accuracy    <       0.00236487 Ry

     total magnetization       =    -0.00 Bohr mag/cell
     absolute magnetization    =     0.09 Bohr mag/cell

     iteration # 37     ecut=    70.00 Ry     beta= 0.70
     Davidson diagonalization with overlap
     ethr =  1.09E-06,  avg # of iterations =  6.5

     negative rho (up, down):  1.062E-03 5.122E-02

     total cpu time spent up to now is     3421.2 secs

     total energy              =    -951.88758573 Ry
     Harris-Foulkes estimate   =    -951.88739207 Ry
     estimated scf accuracy    <       0.00270534 Ry

     total magnetization       =    -0.00 Bohr mag/cell
     absolute magnetization    =     0.09 Bohr mag/cell

     iteration # 38     ecut=    70.00 Ry     beta= 0.70
     Davidson diagonalization with overlap
     ethr =  1.09E-06,  avg # of iterations =  3.0

     negative rho (up, down):  1.238E-03 1.737E-01

     total cpu time spent up to now is     3514.2 secs

     total energy              =    -951.88638118 Ry
     Harris-Foulkes estimate   =    -951.88809542 Ry
     estimated scf accuracy    <       0.03825307 Ry

     total magnetization       =     0.00 Bohr mag/cell
     absolute magnetization    =     0.31 Bohr mag/cell

     iteration # 39     ecut=    70.00 Ry     beta= 0.70
     Davidson diagonalization with overlap
     ethr =  1.09E-06,  avg # of iterations =  5.0

     negative rho (up, down):  1.178E-03 1.174E-01

     total cpu time spent up to now is     3610.5 secs

     total energy              =    -951.88709187 Ry
     Harris-Foulkes estimate   =    -951.88680391 Ry
     estimated scf accuracy    <       0.00307845 Ry

     total magnetization       =    -0.00 Bohr mag/cell
     absolute magnetization    =     0.09 Bohr mag/cell

     iteration # 40     ecut=    70.00 Ry     beta= 0.70
     Davidson diagonalization with overlap
     ethr =  1.09E-06,  avg # of iterations =  2.0

     negative rho (up, down):  1.107E-03 6.099E-02

     total cpu time spent up to now is     3697.6 secs

     total energy              =    -951.88743481 Ry
     Harris-Foulkes estimate   =    -951.88718497 Ry
     estimated scf accuracy    <       0.00147422 Ry

     total magnetization       =    -0.00 Bohr mag/cell
     absolute magnetization    =     0.06 Bohr mag/cell

     iteration # 41     ecut=    70.00 Ry     beta= 0.70
     Davidson diagonalization with overlap
     ethr =  6.83E-07,  avg # of iterations =  3.0

     negative rho (up, down):  1.254E-03 9.325E-02

     total cpu time spent up to now is     3786.9 secs

     total energy              =    -951.88728901 Ry
     Harris-Foulkes estimate   =    -951.88752455 Ry
     estimated scf accuracy    <       0.00741428 Ry

     total magnetization       =     0.00 Bohr mag/cell
     absolute magnetization    =     0.12 Bohr mag/cell

     iteration # 42     ecut=    70.00 Ry     beta= 0.70
     Davidson diagonalization with overlap
     ethr =  6.83E-07,  avg # of iterations =  2.0

     negative rho (up, down):  1.220E-03 1.005E-01

     total cpu time spent up to now is     3872.1 secs

     total energy              =    -951.88730476 Ry
     Harris-Foulkes estimate   =    -951.88731409 Ry
     estimated scf accuracy    <       0.00562727 Ry

     total magnetization       =     0.00 Bohr mag/cell
     absolute magnetization    =     0.12 Bohr mag/cell

     iteration # 43     ecut=    70.00 Ry     beta= 0.70
     Davidson diagonalization with overlap
     ethr =  6.83E-07,  avg # of iterations =  1.0

     negative rho (up, down):  1.197E-03 1.043E-01

     total cpu time spent up to now is     3956.5 secs

     total energy              =    -951.88729346 Ry
     Harris-Foulkes estimate   =    -951.88730887 Ry
     estimated scf accuracy    <       0.00571896 Ry

     total magnetization       =     0.00 Bohr mag/cell
     absolute magnetization    =     0.12 Bohr mag/cell

     iteration # 44     ecut=    70.00 Ry     beta= 0.70
     Davidson diagonalization with overlap
     ethr =  6.83E-07,  avg # of iterations =  1.0

     negative rho (up, down):  1.153E-03 1.057E-01

     total cpu time spent up to now is     4041.2 secs

     total energy              =    -951.88731617 Ry
     Harris-Foulkes estimate   =    -951.88730481 Ry
     estimated scf accuracy    <       0.00569563 Ry

     total magnetization       =    -0.00 Bohr mag/cell
     absolute magnetization    =     0.12 Bohr mag/cell

     iteration # 45     ecut=    70.00 Ry     beta= 0.70
     Davidson diagonalization with overlap
     ethr =  6.83E-07,  avg # of iterations =  2.0

     negative rho (up, down):  1.148E-03 1.087E-01

     total cpu time spent up to now is     4127.1 secs

     total energy              =    -951.88747011 Ry
     Harris-Foulkes estimate   =    -951.88736283 Ry
     estimated scf accuracy    <       0.00665655 Ry

     total magnetization       =     0.00 Bohr mag/cell
     absolute magnetization    =     0.13 Bohr mag/cell

     iteration # 46     ecut=    70.00 Ry     beta= 0.70
     Davidson diagonalization with overlap
     ethr =  6.83E-07,  avg # of iterations =  2.0

     negative rho (up, down):  1.209E-03 1.366E-01

     total cpu time spent up to now is     4214.2 secs

     total energy              =    -951.88783747 Ry
     Harris-Foulkes estimate   =    -951.88756629 Ry
     estimated scf accuracy    <       0.01521087 Ry

     total magnetization       =     0.00 Bohr mag/cell
     absolute magnetization    =     0.19 Bohr mag/cell

     iteration # 47     ecut=    70.00 Ry     beta= 0.70
     Davidson diagonalization with overlap
     ethr =  6.83E-07,  avg # of iterations =  2.5

     negative rho (up, down):  2.175E-03 1.791E-01

     total cpu time spent up to now is     4309.7 secs

     total energy              =    -951.88637839 Ry
     Harris-Foulkes estimate   =    -951.88855998 Ry
     estimated scf accuracy    <       0.07749403 Ry

     total magnetization       =    -0.00 Bohr mag/cell
     absolute magnetization    =     0.40 Bohr mag/cell

     iteration # 48     ecut=    70.00 Ry     beta= 0.70
     Davidson diagonalization with overlap
     ethr =  6.83E-07,  avg # of iterations =  4.5

     negative rho (up, down):  1.668E-03 1.737E-01

     total cpu time spent up to now is     4409.5 secs

     total energy              =    -951.88748421 Ry
     Harris-Foulkes estimate   =    -951.88710295 Ry
     estimated scf accuracy    <       0.03861760 Ry

     total magnetization       =    -0.00 Bohr mag/cell
     absolute magnetization    =     0.29 Bohr mag/cell

     iteration # 49     ecut=    70.00 Ry     beta= 0.70
     Davidson diagonalization with overlap
     ethr =  6.83E-07,  avg # of iterations =  2.0

     negative rho (up, down):  1.474E-03 1.872E-01

     total cpu time spent up to now is     4496.9 secs

     total energy              =    -951.88630746 Ry
     Harris-Foulkes estimate   =    -951.88755034 Ry
     estimated scf accuracy    <       0.04746189 Ry

     total magnetization       =     0.00 Bohr mag/cell
     absolute magnetization    =     0.32 Bohr mag/cell

     iteration # 50     ecut=    70.00 Ry     beta= 0.70
     Davidson diagonalization with overlap
     ethr =  6.83E-07,  avg # of iterations =  3.0

     negative rho (up, down):  1.196E-03 1.575E-01

     total cpu time spent up to now is     4592.6 secs

     total energy              =    -951.88692295 Ry
     Harris-Foulkes estimate   =    -951.88673338 Ry
     estimated scf accuracy    <       0.01387057 Ry

     total magnetization       =    -0.00 Bohr mag/cell
     absolute magnetization    =     0.18 Bohr mag/cell

     iteration # 51     ecut=    70.00 Ry     beta= 0.70
     Davidson diagonalization with overlap
     ethr =  6.83E-07,  avg # of iterations =  3.0

     negative rho (up, down):  1.239E-03 1.392E-01

     total cpu time spent up to now is     4681.8 secs

     total energy              =    -951.88716601 Ry
     Harris-Foulkes estimate   =    -951.88706760 Ry
     estimated scf accuracy    <       0.01071179 Ry

     total magnetization       =     0.00 Bohr mag/cell
     absolute magnetization    =     0.15 Bohr mag/cell

     iteration # 52     ecut=    70.00 Ry     beta= 0.70
     Davidson diagonalization with overlap
     ethr =  6.83E-07,  avg # of iterations =  2.0

     negative rho (up, down):  1.082E-03 1.393E-01

     total cpu time spent up to now is     4767.0 secs

     total energy              =    -951.88729172 Ry
     Harris-Foulkes estimate   =    -951.88719768 Ry
     estimated scf accuracy    <       0.00908033 Ry

     total magnetization       =     0.00 Bohr mag/cell
     absolute magnetization    =     0.15 Bohr mag/cell

     iteration # 53     ecut=    70.00 Ry     beta= 0.70
     Davidson diagonalization with overlap
     ethr =  6.83E-07,  avg # of iterations =  3.0

     negative rho (up, down):  3.050E-03 1.310E-01

     total cpu time spent up to now is     4863.7 secs

     total energy              =    -951.88688468 Ry
     Harris-Foulkes estimate   =    -951.88821842 Ry
     estimated scf accuracy    <       0.05851247 Ry

     total magnetization       =    -0.00 Bohr mag/cell
     absolute magnetization    =     0.29 Bohr mag/cell

     iteration # 54     ecut=    70.00 Ry     beta= 0.70
     Davidson diagonalization with overlap
     ethr =  6.83E-07,  avg # of iterations =  3.5

     negative rho (up, down):  3.066E-03 1.717E-01

     total cpu time spent up to now is     4968.6 secs

     total energy              =    -951.88885733 Ry
     Harris-Foulkes estimate   =    -951.88775040 Ry
     estimated scf accuracy    <       0.07444407 Ry

     total magnetization       =     0.00 Bohr mag/cell
     absolute magnetization    =     0.37 Bohr mag/cell

     iteration # 55     ecut=    70.00 Ry     beta= 0.70
     Davidson diagonalization with overlap
     ethr =  6.83E-07,  avg # of iterations =  4.5

     negative rho (up, down):  4.321E-03 2.359E-01

     total cpu time spent up to now is     5082.1 secs

     total energy              =    -951.88809028 Ry
     Harris-Foulkes estimate   =    -951.89014993 Ry
     estimated scf accuracy    <       0.21568807 Ry

     total magnetization       =    -0.00 Bohr mag/cell
     absolute magnetization    =     0.67 Bohr mag/cell

     iteration # 56     ecut=    70.00 Ry     beta= 0.70
     Davidson diagonalization with overlap
     ethr =  6.83E-07,  avg # of iterations =  4.5

     negative rho (up, down):  4.005E-03 2.492E-01

     total cpu time spent up to now is     5201.1 secs

     total energy              =    -951.88450684 Ry
     Harris-Foulkes estimate   =    -951.88960586 Ry
     estimated scf accuracy    <       0.17620033 Ry

     total magnetization       =     0.00 Bohr mag/cell
     absolute magnetization    =     0.59 Bohr mag/cell

     iteration # 57     ecut=    70.00 Ry     beta= 0.70
     Davidson diagonalization with overlap
     ethr =  6.83E-07,  avg # of iterations =  4.0

     negative rho (up, down):  2.197E-03 2.347E-01

     total cpu time spent up to now is     5317.8 secs

     total energy              =    -951.88560287 Ry
     Harris-Foulkes estimate   =    -951.88641133 Ry
     estimated scf accuracy    <       0.06782501 Ry

     total magnetization       =    -0.00 Bohr mag/cell
     absolute magnetization    =     0.39 Bohr mag/cell

     iteration # 58     ecut=    70.00 Ry     beta= 0.70
     Davidson diagonalization with overlap
     ethr =  6.83E-07,  avg # of iterations =  3.0

     negative rho (up, down):  1.234E-03 2.305E-01

     total cpu time spent up to now is     5427.6 secs

     total energy              =    -951.88544055 Ry
     Harris-Foulkes estimate   =    -951.88739561 Ry
     estimated scf accuracy    <       0.09759537 Ry

     total magnetization       =     0.00 Bohr mag/cell
     absolute magnetization    =     0.48 Bohr mag/cell

     iteration # 59     ecut=    70.00 Ry     beta= 0.70
     Davidson diagonalization with overlap
     ethr =  6.83E-07,  avg # of iterations =  5.5

     negative rho (up, down):  1.119E-03 1.982E-01

     total cpu time spent up to now is     5535.7 secs

     total energy              =    -951.88770775 Ry
     Harris-Foulkes estimate   =    -951.88649795 Ry
     estimated scf accuracy    <       0.02283775 Ry

     total magnetization       =    -0.00 Bohr mag/cell
     absolute magnetization    =     0.24 Bohr mag/cell

     iteration # 60     ecut=    70.00 Ry     beta= 0.70
     Davidson diagonalization with overlap
     ethr =  6.83E-07,  avg # of iterations =  5.0

     negative rho (up, down):  1.305E-03 2.393E-01

     total cpu time spent up to now is     5635.6 secs

     total energy              =    -951.88471092 Ry
     Harris-Foulkes estimate   =    -951.88852860 Ry
     estimated scf accuracy    <       0.11877315 Ry

     total magnetization       =     0.00 Bohr mag/cell
     absolute magnetization    =     0.53 Bohr mag/cell

     iteration # 61     ecut=    70.00 Ry     beta= 0.70
     Davidson diagonalization with overlap
     ethr =  6.83E-07,  avg # of iterations =  4.5

     negative rho (up, down):  2.474E-03 1.593E-01

     total cpu time spent up to now is     5745.0 secs

     total energy              =    -951.88564193 Ry
     Harris-Foulkes estimate   =    -951.88652384 Ry
     estimated scf accuracy    <       0.03335393 Ry

     total magnetization       =    -0.00 Bohr mag/cell
     absolute magnetization    =     0.19 Bohr mag/cell

     iteration # 62     ecut=    70.00 Ry     beta= 0.70
     Davidson diagonalization with overlap
     ethr =  6.83E-07,  avg # of iterations =  5.5

     negative rho (up, down):  1.192E-03 1.254E-01

     total cpu time spent up to now is     5848.8 secs

     total energy              =    -951.88652242 Ry
     Harris-Foulkes estimate   =    -951.88660752 Ry
     estimated scf accuracy    <       0.00910498 Ry

     total magnetization       =    -0.00 Bohr mag/cell
     absolute magnetization    =     0.13 Bohr mag/cell

     iteration # 63     ecut=    70.00 Ry     beta= 0.70
     Davidson diagonalization with overlap
     ethr =  6.83E-07,  avg # of iterations =  4.0

     negative rho (up, down):  1.655E-03 5.487E-02

     total cpu time spent up to now is     5949.5 secs

     total energy              =    -951.88687798 Ry
     Harris-Foulkes estimate   =    -951.88732180 Ry
     estimated scf accuracy    <       0.01211526 Ry

     total magnetization       =     0.00 Bohr mag/cell
     absolute magnetization    =     0.12 Bohr mag/cell

     iteration # 64     ecut=    70.00 Ry     beta= 0.70
     Davidson diagonalization with overlap
     ethr =  6.83E-07,  avg # of iterations =  3.0

     negative rho (up, down):  2.789E-03 6.639E-02

     total cpu time spent up to now is     6052.1 secs

     total energy              =    -951.88599364 Ry
     Harris-Foulkes estimate   =    -951.88816121 Ry
     estimated scf accuracy    <       0.04339790 Ry

     total magnetization       =    -0.00 Bohr mag/cell
     absolute magnetization    =     0.19 Bohr mag/cell

     iteration # 65     ecut=    70.00 Ry     beta= 0.70
     Davidson diagonalization with overlap
     ethr =  6.83E-07,  avg # of iterations =  4.0

     negative rho (up, down):  1.224E-03 1.009E-01

     total cpu time spent up to now is     6153.8 secs

     total energy              =    -951.88708783 Ry
     Harris-Foulkes estimate   =    -951.88710305 Ry
     estimated scf accuracy    <       0.00717998 Ry

     total magnetization       =    -0.00 Bohr mag/cell
     absolute magnetization    =     0.12 Bohr mag/cell

     iteration # 66     ecut=    70.00 Ry     beta= 0.70
     Davidson diagonalization with overlap
     ethr =  6.83E-07,  avg # of iterations =  4.0

     negative rho (up, down):  1.141E-03 1.035E-01

     total cpu time spent up to now is     6245.0 secs

     total energy              =    -951.88751502 Ry
     Harris-Foulkes estimate   =    -951.88730492 Ry
     estimated scf accuracy    <       0.00511441 Ry

     total magnetization       =    -0.00 Bohr mag/cell
     absolute magnetization    =     0.11 Bohr mag/cell

     iteration # 67     ecut=    70.00 Ry     beta= 0.70
     Davidson diagonalization with overlap
     ethr =  6.83E-07,  avg # of iterations =  2.0

     negative rho (up, down):  1.321E-03 1.503E-01

     total cpu time spent up to now is     6333.9 secs

     total energy              =    -951.88685709 Ry
     Harris-Foulkes estimate   =    -951.88764878 Ry
     estimated scf accuracy    <       0.02206878 Ry

     total magnetization       =     0.00 Bohr mag/cell
     absolute magnetization    =     0.23 Bohr mag/cell

     iteration # 68     ecut=    70.00 Ry     beta= 0.70
     Davidson diagonalization with overlap
     ethr =  6.83E-07,  avg # of iterations =  4.0

     negative rho (up, down):  1.814E-03 1.815E-01

     total cpu time spent up to now is     6435.3 secs

     total energy              =    -951.88646420 Ry
     Harris-Foulkes estimate   =    -951.88810046 Ry
     estimated scf accuracy    <       0.06784897 Ry

     total magnetization       =    -0.00 Bohr mag/cell
     absolute magnetization    =     0.38 Bohr mag/cell

     iteration # 69     ecut=    70.00 Ry     beta= 0.70
     Davidson diagonalization with overlap
     ethr =  6.83E-07,  avg # of iterations =  5.0

     negative rho (up, down):  1.638E-03 1.601E-01

     total cpu time spent up to now is     6531.9 secs

     total energy              =    -951.88616711 Ry
     Harris-Foulkes estimate   =    -951.88680921 Ry
     estimated scf accuracy    <       0.01916793 Ry

     total magnetization       =     0.00 Bohr mag/cell
     absolute magnetization    =     0.20 Bohr mag/cell

     iteration # 70     ecut=    70.00 Ry     beta= 0.70
     Davidson diagonalization with overlap
     ethr =  6.83E-07,  avg # of iterations =  3.5

     negative rho (up, down):  1.385E-03 1.961E-01

     total cpu time spent up to now is     6634.2 secs

     total energy              =    -951.88582811 Ry
     Harris-Foulkes estimate   =    -951.88739824 Ry
     estimated scf accuracy    <       0.05444849 Ry

     total magnetization       =     0.00 Bohr mag/cell
     absolute magnetization    =     0.36 Bohr mag/cell

     iteration # 71     ecut=    70.00 Ry     beta= 0.70
     Davidson diagonalization with overlap
     ethr =  6.83E-07,  avg # of iterations =  4.5

     negative rho (up, down):  1.237E-03 1.138E-01

     total cpu time spent up to now is     6733.2 secs

     total energy              =    -951.88707688 Ry
     Harris-Foulkes estimate   =    -951.88652431 Ry
     estimated scf accuracy    <       0.00210706 Ry

     total magnetization       =    -0.00 Bohr mag/cell
     absolute magnetization    =     0.05 Bohr mag/cell

     iteration # 72     ecut=    70.00 Ry     beta= 0.70
     Davidson diagonalization with overlap
     ethr =  6.83E-07,  avg # of iterations =  5.5

     negative rho (up, down):  1.158E-03 6.622E-02

     total cpu time spent up to now is     6827.7 secs

     total energy              =    -951.88720431 Ry
     Harris-Foulkes estimate   =    -951.88722227 Ry
     estimated scf accuracy    <       0.00323222 Ry

     total magnetization       =     0.00 Bohr mag/cell
     absolute magnetization    =     0.07 Bohr mag/cell

     iteration # 73     ecut=    70.00 Ry     beta= 0.70
     Davidson diagonalization with overlap
     ethr =  6.83E-07,  avg # of iterations =  2.5

     negative rho (up, down):  1.104E-03 1.080E-02

     total cpu time spent up to now is     6918.7 secs

     total energy              =    -951.88740191 Ry
     Harris-Foulkes estimate   =    -951.88736179 Ry
     estimated scf accuracy    <       0.00125215 Ry

     total magnetization       =    -0.00 Bohr mag/cell
     absolute magnetization    =     0.04 Bohr mag/cell

     iteration # 74     ecut=    70.00 Ry     beta= 0.70
     Davidson diagonalization with overlap
     ethr =  5.80E-07,  avg # of iterations =  3.0

     negative rho (up, down):  1.077E-03 1.053E-02

     total cpu time spent up to now is     7008.2 secs

     total energy              =    -951.88744024 Ry
     Harris-Foulkes estimate   =    -951.88744267 Ry
     estimated scf accuracy    <       0.00033816 Ry

     total magnetization       =     0.00 Bohr mag/cell
     absolute magnetization    =     0.02 Bohr mag/cell

     iteration # 75     ecut=    70.00 Ry     beta= 0.70
     Davidson diagonalization with overlap
     ethr =  1.57E-07,  avg # of iterations =  2.0

     negative rho (up, down):  1.064E-03 1.079E-02

     total cpu time spent up to now is     7095.2 secs

     total energy              =    -951.88744242 Ry
     Harris-Foulkes estimate   =    -951.88745958 Ry
     estimated scf accuracy    <       0.00021585 Ry

     total magnetization       =    -0.00 Bohr mag/cell
     absolute magnetization    =     0.02 Bohr mag/cell

     iteration # 76     ecut=    70.00 Ry     beta= 0.70
     Davidson diagonalization with overlap
     ethr =  9.99E-08,  avg # of iterations =  2.0

     negative rho (up, down):  1.070E-03 2.138E-02

     total cpu time spent up to now is     7182.3 secs

     total energy              =    -951.88744560 Ry
     Harris-Foulkes estimate   =    -951.88746559 Ry
     estimated scf accuracy    <       0.00029239 Ry

     total magnetization       =    -0.00 Bohr mag/cell
     absolute magnetization    =     0.03 Bohr mag/cell

     iteration # 77     ecut=    70.00 Ry     beta= 0.70
     Davidson diagonalization with overlap
     ethr =  9.99E-08,  avg # of iterations =  1.5

     negative rho (up, down):  1.067E-03 2.788E-02

     total cpu time spent up to now is     7267.0 secs

     total energy              =    -951.88744484 Ry
     Harris-Foulkes estimate   =    -951.88745259 Ry
     estimated scf accuracy    <       0.00031403 Ry

     total magnetization       =     0.00 Bohr mag/cell
     absolute magnetization    =     0.03 Bohr mag/cell

     iteration # 78     ecut=    70.00 Ry     beta= 0.70
     Davidson diagonalization with overlap
     ethr =  9.99E-08,  avg # of iterations =  1.0

     negative rho (up, down):  1.064E-03 2.455E-02

     total cpu time spent up to now is     7351.4 secs

     total energy              =    -951.88745220 Ry
     Harris-Foulkes estimate   =    -951.88744654 Ry
     estimated scf accuracy    <       0.00018542 Ry

     total magnetization       =     0.00 Bohr mag/cell
     absolute magnetization    =     0.03 Bohr mag/cell

     iteration # 79     ecut=    70.00 Ry     beta= 0.70
     Davidson diagonalization with overlap
     ethr =  8.58E-08,  avg # of iterations =  1.0

     negative rho (up, down):  1.065E-03 2.999E-02

     total cpu time spent up to now is     7435.6 secs

     total energy              =    -951.88743563 Ry
     Harris-Foulkes estimate   =    -951.88745345 Ry
     estimated scf accuracy    <       0.00033515 Ry

     total magnetization       =    -0.00 Bohr mag/cell
     absolute magnetization    =     0.03 Bohr mag/cell

     iteration # 80     ecut=    70.00 Ry     beta= 0.70
     Davidson diagonalization with overlap
     ethr =  8.58E-08,  avg # of iterations =  2.0

     negative rho (up, down):  1.064E-03 4.536E-02

     total cpu time spent up to now is     7524.6 secs

     total energy              =    -951.88742036 Ry
     Harris-Foulkes estimate   =    -951.88745454 Ry
     estimated scf accuracy    <       0.00086350 Ry

     total magnetization       =     0.00 Bohr mag/cell
     absolute magnetization    =     0.05 Bohr mag/cell

     iteration # 81     ecut=    70.00 Ry     beta= 0.70
     Davidson diagonalization with overlap
     ethr =  8.58E-08,  avg # of iterations =  2.0

     negative rho (up, down):  1.065E-03 2.595E-02

     total cpu time spent up to now is     7611.6 secs

     total energy              =    -951.88744427 Ry
     Harris-Foulkes estimate   =    -951.88742883 Ry
     estimated scf accuracy    <       0.00011843 Ry

     total magnetization       =     0.00 Bohr mag/cell
     absolute magnetization    =     0.02 Bohr mag/cell

     iteration # 82     ecut=    70.00 Ry     beta= 0.70
     Davidson diagonalization with overlap
     ethr =  5.48E-08,  avg # of iterations =  2.0

     negative rho (up, down):  1.074E-03 1.862E-02

     total cpu time spent up to now is     7700.5 secs

     total energy              =    -951.88743344 Ry
     Harris-Foulkes estimate   =    -951.88745351 Ry
     estimated scf accuracy    <       0.00029941 Ry

     total magnetization       =    -0.00 Bohr mag/cell
     absolute magnetization    =     0.02 Bohr mag/cell

     iteration # 83     ecut=    70.00 Ry     beta= 0.70
     Davidson diagonalization with overlap
     ethr =  5.48E-08,  avg # of iterations =  2.0

     negative rho (up, down):  1.074E-03 7.397E-03

     total cpu time spent up to now is     7791.2 secs

     total energy              =    -951.88744757 Ry
     Harris-Foulkes estimate   =    -951.88745159 Ry
     estimated scf accuracy    <       0.00021257 Ry

     total magnetization       =    -0.00 Bohr mag/cell
     absolute magnetization    =     0.02 Bohr mag/cell

     iteration # 84     ecut=    70.00 Ry     beta= 0.70
     Davidson diagonalization with overlap
     ethr =  5.48E-08,  avg # of iterations =  2.0

     negative rho (up, down):  1.067E-03 9.236E-03

     total cpu time spent up to now is     7878.6 secs

     total energy              =    -951.88745167 Ry
     Harris-Foulkes estimate   =    -951.88745636 Ry
     estimated scf accuracy    <       0.00011928 Ry

     total magnetization       =    -0.00 Bohr mag/cell
     absolute magnetization    =     0.01 Bohr mag/cell

     iteration # 85     ecut=    70.00 Ry     beta= 0.70
     Davidson diagonalization with overlap
     ethr =  5.48E-08,  avg # of iterations =  2.0

     negative rho (up, down):  1.065E-03 9.719E-03

     total cpu time spent up to now is     7965.4 secs

     total energy              =    -951.88745297 Ry
     Harris-Foulkes estimate   =    -951.88745759 Ry
     estimated scf accuracy    <       0.00008814 Ry

     total magnetization       =    -0.00 Bohr mag/cell
     absolute magnetization    =     0.01 Bohr mag/cell

     iteration # 86     ecut=    70.00 Ry     beta= 0.70
     Davidson diagonalization with overlap
     ethr =  4.08E-08,  avg # of iterations =  2.0

     negative rho (up, down):  1.063E-03 5.181E-03

     total cpu time spent up to now is     8050.9 secs

     total energy              =    -951.88745708 Ry
     Harris-Foulkes estimate   =    -951.88745557 Ry
     estimated scf accuracy    <       0.00000653 Ry

     total magnetization       =    -0.00 Bohr mag/cell
     absolute magnetization    =     0.01 Bohr mag/cell

     iteration # 87     ecut=    70.00 Ry     beta= 0.70
     Davidson diagonalization with overlap
     ethr =  3.02E-09,  avg # of iterations =  3.0

     negative rho (up, down):  1.064E-03 1.694E-02

     total cpu time spent up to now is     8149.5 secs

     total energy              =    -951.88745767 Ry
     Harris-Foulkes estimate   =    -951.88746170 Ry
     estimated scf accuracy    <       0.00018201 Ry

     total magnetization       =    -0.00 Bohr mag/cell
     absolute magnetization    =     0.02 Bohr mag/cell

     iteration # 88     ecut=    70.00 Ry     beta= 0.70
     Davidson diagonalization with overlap
     ethr =  3.02E-09,  avg # of iterations =  2.0

     negative rho (up, down):  1.066E-03 2.428E-02

     total cpu time spent up to now is     8236.9 secs

     total energy              =    -951.88744781 Ry
     Harris-Foulkes estimate   =    -951.88745803 Ry
     estimated scf accuracy    <       0.00025569 Ry

     total magnetization       =     0.00 Bohr mag/cell
     absolute magnetization    =     0.03 Bohr mag/cell

     iteration # 89     ecut=    70.00 Ry     beta= 0.70
     Davidson diagonalization with overlap
     ethr =  3.02E-09,  avg # of iterations =  3.0

     negative rho (up, down):  1.066E-03 2.787E-02

     total cpu time spent up to now is     8333.4 secs

     total energy              =    -951.88743749 Ry
     Harris-Foulkes estimate   =    -951.88745245 Ry
     estimated scf accuracy    <       0.00033170 Ry

     total magnetization       =    -0.00 Bohr mag/cell
     absolute magnetization    =     0.03 Bohr mag/cell

     iteration # 90     ecut=    70.00 Ry     beta= 0.70
     Davidson diagonalization with overlap
     ethr =  3.02E-09,  avg # of iterations =  3.0

     negative rho (up, down):  1.062E-03 2.166E-02

     total cpu time spent up to now is     8433.9 secs

     total energy              =    -951.88745054 Ry
     Harris-Foulkes estimate   =    -951.88744556 Ry
     estimated scf accuracy    <       0.00015743 Ry

     total magnetization       =    -0.00 Bohr mag/cell
     absolute magnetization    =     0.02 Bohr mag/cell

     iteration # 91     ecut=    70.00 Ry     beta= 0.70
     Davidson diagonalization with overlap
     ethr =  3.02E-09,  avg # of iterations =  2.5

     negative rho (up, down):  1.062E-03 1.369E-02

     total cpu time spent up to now is     8523.5 secs

     total energy              =    -951.88745453 Ry
     Harris-Foulkes estimate   =    -951.88745153 Ry
     estimated scf accuracy    <       0.00002777 Ry

     total magnetization       =    -0.00 Bohr mag/cell
     absolute magnetization    =     0.01 Bohr mag/cell

     iteration # 92     ecut=    70.00 Ry     beta= 0.70
     Davidson diagonalization with overlap
     ethr =  3.02E-09,  avg # of iterations =  2.5

     negative rho (up, down):  1.063E-03 6.733E-03

     total cpu time spent up to now is     8614.4 secs

     total energy              =    -951.88745547 Ry
     Harris-Foulkes estimate   =    -951.88745566 Ry
     estimated scf accuracy    <       0.00002795 Ry

     total magnetization       =    -0.00 Bohr mag/cell
     absolute magnetization    =     0.01 Bohr mag/cell

     iteration # 93     ecut=    70.00 Ry     beta= 0.70
     Davidson diagonalization with overlap
     ethr =  3.02E-09,  avg # of iterations =  2.0

     negative rho (up, down):  1.062E-03 1.912E-03

     total cpu time spent up to now is     8705.7 secs

     total energy              =    -951.88745734 Ry
     Harris-Foulkes estimate   =    -951.88745680 Ry
     estimated scf accuracy    <       0.00001130 Ry

     total magnetization       =     0.00 Bohr mag/cell
     absolute magnetization    =     0.01 Bohr mag/cell

     iteration # 94     ecut=    70.00 Ry     beta= 0.70
     Davidson diagonalization with overlap
     ethr =  3.02E-09,  avg # of iterations =  2.0

     negative rho (up, down):  1.062E-03 1.258E-03

     total cpu time spent up to now is     8792.5 secs

     total energy              =    -951.88745772 Ry
     Harris-Foulkes estimate   =    -951.88745771 Ry
     estimated scf accuracy    <       0.00000194 Ry

     total magnetization       =    -0.00 Bohr mag/cell
     absolute magnetization    =     0.00 Bohr mag/cell

     iteration # 95     ecut=    70.00 Ry     beta= 0.70
     Davidson diagonalization with overlap
     ethr =  8.96E-10,  avg # of iterations =  2.0

     negative rho (up, down):  1.062E-03 1.250E-03

     total cpu time spent up to now is     8880.0 secs

     total energy              =    -951.88745765 Ry
     Harris-Foulkes estimate   =    -951.88745786 Ry
     estimated scf accuracy    <       0.00000261 Ry

     total magnetization       =     0.00 Bohr mag/cell
     absolute magnetization    =     0.00 Bohr mag/cell

     iteration # 96     ecut=    70.00 Ry     beta= 0.70
     Davidson diagonalization with overlap
     ethr =  8.96E-10,  avg # of iterations =  2.0

     negative rho (up, down):  1.062E-03 5.409E-04

     total cpu time spent up to now is     8968.6 secs

     total energy              =    -951.88745771 Ry
     Harris-Foulkes estimate   =    -951.88745791 Ry
     estimated scf accuracy    <       0.00000132 Ry

     total magnetization       =    -0.00 Bohr mag/cell
     absolute magnetization    =     0.00 Bohr mag/cell

     iteration # 97     ecut=    70.00 Ry     beta= 0.70
     Davidson diagonalization with overlap
     ethr =  6.12E-10,  avg # of iterations =  2.0

     negative rho (up, down):  1.061E-03 3.086E-05

     Magnetic moment per site:
     atom:    1    charge:    0.2107    magn:    0.0000    constr:    0.0000
     atom:    2    charge:    0.2115    magn:   -0.0000    constr:    0.0000
     atom:    3    charge:    1.7155    magn:    0.0000    constr:    0.0000
     atom:    4    charge:    1.7152    magn:   -0.0000    constr:    0.0000
     atom:    5    charge:    1.7168    magn:    0.0000    constr:    0.0000
     atom:    6    charge:    1.7146    magn:   -0.0000    constr:    0.0000
     atom:    7    charge:    1.7168    magn:    0.0000    constr:    0.0000
     atom:    8    charge:    1.7152    magn:   -0.0000    constr:    0.0000
     atom:    9    charge:    1.7155    magn:    0.0000    constr:    0.0000
     atom:   10    charge:    1.7177    magn:   -0.0000    constr:    0.0000
     atom:   11    charge:    1.7156    magn:    0.0000    constr:    0.0000
     atom:   12    charge:    1.7177    magn:   -0.0000    constr:    0.0000
     atom:   13    charge:    1.7155    magn:    0.0000    constr:    0.0000
     atom:   14    charge:    1.7175    magn:   -0.0000    constr:    0.0000
     atom:   15    charge:    1.7117    magn:    0.0000    constr:    0.0000
     atom:   16    charge:    1.7114    magn:   -0.0000    constr:    0.0000
     atom:   17    charge:    1.7206    magn:    0.0000    constr:    0.0000
     atom:   18    charge:    1.7114    magn:   -0.0000    constr:    0.0000
     atom:   19    charge:    1.7117    magn:    0.0000    constr:    0.0000
     atom:   20    charge:    1.7175    magn:   -0.0000    constr:    0.0000
     atom:   21    charge:    1.7156    magn:    0.0000    constr:    0.0000
     atom:   22    charge:    1.7176    magn:   -0.0000    constr:    0.0000
     atom:   23    charge:    1.7155    magn:    0.0000    constr:    0.0000
     atom:   24    charge:    1.7152    magn:   -0.0000    constr:    0.0000
     atom:   25    charge:    1.7117    magn:    0.0000    constr:    0.0000
     atom:   26    charge:    1.7114    magn:   -0.0000    constr:    0.0000
     atom:   27    charge:    1.8182    magn:    0.0000    constr:    0.0000
     atom:   28    charge:   13.4051    magn:    0.0000    constr:    0.0000
     atom:   29    charge:    1.8182    magn:    0.0000    constr:    0.0000
     atom:   30    charge:    1.7114    magn:   -0.0000    constr:    0.0000
     atom:   31    charge:    1.7118    magn:    0.0000    constr:    0.0000
     atom:   32    charge:    1.7152    magn:   -0.0000    constr:    0.0000
     atom:   33    charge:    1.7168    magn:    0.0000    constr:    0.0000
     atom:   34    charge:    1.7154    magn:   -0.0000    constr:    0.0000
     atom:   35    charge:    1.7168    magn:    0.0000    constr:    0.0000
     atom:   36    charge:    1.7146    magn:   -0.0000    constr:    0.0000
     atom:   37    charge:    1.7206    magn:    0.0000    constr:    0.0000
     atom:   38    charge:    1.7114    magn:   -0.0000    constr:    0.0000
     atom:   39    charge:    1.8182    magn:    0.0000    constr:    0.0000
     atom:   40    charge:    1.7114    magn:   -0.0000    constr:    0.0000
     atom:   41    charge:    1.7206    magn:    0.0000    constr:    0.0000
     atom:   42    charge:    1.7146    magn:   -0.0000    constr:    0.0000
     atom:   43    charge:    1.7168    magn:    0.0000    constr:    0.0000
     atom:   44    charge:    1.7154    magn:   -0.0000    constr:    0.0000
     atom:   45    charge:    1.7212    magn:    0.0000    constr:    0.0000
     atom:   46    charge:    1.7154    magn:   -0.0000    constr:    0.0000
     atom:   47    charge:    1.7168    magn:    0.0000    constr:    0.0000
     atom:   48    charge:    1.7152    magn:   -0.0000    constr:    0.0000
     atom:   49    charge:    1.7118    magn:    0.0000    constr:    0.0000
     atom:   50    charge:    1.7175    magn:   -0.0000    constr:    0.0000
     atom:   51    charge:    1.7118    magn:    0.0000    constr:    0.0000
     atom:   52    charge:    1.7152    magn:   -0.0000    constr:    0.0000

     total cpu time spent up to now is     9055.0 secs

     End of self-consistent calculation

 ------ SPIN UP ------------


          k = 0.0000 0.0000 0.0000 ( 87777 PWs)   bands (ev):

  -107.9204 -69.0889 -69.0886 -67.0047 -19.8265 -19.0073 -19.0069 -18.8884
   -18.8882 -18.8033 -18.7361 -17.1634 -17.1629 -17.1282 -17.0793 -17.0790
   -16.7532 -16.3123 -16.3121 -16.1656 -16.1655 -16.1522 -15.6700 -14.3108
   -14.3105 -14.1500 -14.0162 -14.0161 -13.5142 -13.1284 -13.1284 -13.0768
   -12.9008 -12.9007 -12.5005 -12.0758 -12.0758 -11.7122 -11.5681 -11.5680
   -10.9344 -10.4323 -10.4322  -9.5772  -9.3656  -9.3654  -9.2263  -9.2113
    -9.2113  -9.1965  -8.9526  -8.9526  -8.5930  -8.5929  -8.4574  -7.9433
    -7.9017  -7.8477  -7.8461  -7.6639  -7.5414  -7.5414  -7.4483  -7.4482
    -6.8461  -6.8214  -6.8212  -6.7539  -6.7123  -6.6191  -6.6189  -6.5551
    -6.5501  -6.5500  -6.5171  -6.4856  -6.4252  -6.4251  -6.3757  -6.2892
    -6.2891  -5.5465  -5.5464  -5.0305  -4.9494  -4.8424  -4.8424  -4.7575
    -4.7162  -4.7158  -4.4275  -4.3985  -4.3984  -3.8361  -3.8358  -3.7642
    -3.7586  -3.7586  -3.7306  -3.4198  -3.4193  -3.3509  -1.8915  -1.8060
    -1.8058  -1.5905  -1.5895  -1.1579   0.1063   0.1068   0.9045   0.9629
     0.9634   1.2125   1.2130   1.5493   2.4972   2.8028   2.8035   2.8527
     3.0393   3.0403   3.4331   3.6025   3.6094   3.7348   3.7379   3.7619
     3.8569   4.0380

     occupation numbers 
     1.0000   1.0000   1.0000   1.0000   1.0000   1.0000   1.0000   1.0000
     1.0000   1.0000   1.0000   1.0000   1.0000   1.0000   1.0000   1.0000
     1.0000   1.0000   1.0000   1.0000   1.0000   1.0000   1.0000   1.0000
     1.0000   1.0000   1.0000   1.0000   1.0000   1.0000   1.0000   1.0000
     1.0000   1.0000   1.0000   1.0000   1.0000   1.0000   1.0000   1.0000
     1.0000   1.0000   1.0000   1.0000   1.0000   1.0000   1.0000   1.0000
     1.0000   1.0000   1.0000   1.0000   1.0000   1.0000   1.0000   1.0000
     1.0000   1.0000   1.0000   1.0000   1.0000   1.0000   1.0000   1.0000
     1.0000   1.0000   1.0000   1.0000   1.0000   1.0000   1.0000   1.0000
     1.0000   1.0000   1.0000   1.0000   1.0000   1.0000   1.0000   1.0000
     1.0000   1.0000   1.0000   1.0000   1.0000   1.0000   1.0000   1.0000
     1.0000   1.0000   1.0000   1.0000   1.0000   1.0000   1.0000   1.0000
     1.0000   1.0000   1.0000   1.0000   1.0000   1.0000   1.0000   1.0000
     1.0000   1.0000   1.0000   1.0000   0.0000   0.0000   0.0000   0.0000
     0.0000   0.0000   0.0000   0.0000   0.0000   0.0000   0.0000   0.0000
     0.0000   0.0000   0.0000   0.0000   0.0000   0.0000   0.0000   0.0000
     0.0000   0.0000

 ------ SPIN DOWN ----------


          k = 0.0000 0.0000 0.0000 ( 87777 PWs)   bands (ev):

  -107.9203 -69.0889 -69.0885 -67.0046 -19.8265 -19.0073 -19.0069 -18.8884
   -18.8882 -18.8033 -18.7361 -17.1634 -17.1629 -17.1282 -17.0793 -17.0790
   -16.7532 -16.3123 -16.3121 -16.1657 -16.1655 -16.1522 -15.6700 -14.3108
   -14.3105 -14.1500 -14.0162 -14.0160 -13.5142 -13.1284 -13.1284 -13.0768
   -12.9008 -12.9007 -12.5005 -12.0759 -12.0757 -11.7122 -11.5681 -11.5680
   -10.9344 -10.4323 -10.4322  -9.5772  -9.3656  -9.3654  -9.2263  -9.2113
    -9.2113  -9.1965  -8.9526  -8.9526  -8.5930  -8.5929  -8.4574  -7.9433
    -7.9017  -7.8476  -7.8461  -7.6639  -7.5415  -7.5414  -7.4483  -7.4482
    -6.8461  -6.8214  -6.8212  -6.7539  -6.7123  -6.6191  -6.6189  -6.5551
    -6.5501  -6.5500  -6.5171  -6.4856  -6.4252  -6.4251  -6.3757  -6.2892
    -6.2891  -5.5465  -5.5464  -5.0305  -4.9494  -4.8424  -4.8423  -4.7575
    -4.7162  -4.7158  -4.4275  -4.3985  -4.3984  -3.8361  -3.8358  -3.7642
    -3.7586  -3.7586  -3.7306  -3.4198  -3.4193  -3.3509  -1.8915  -1.8060
    -1.8058  -1.5905  -1.5896  -1.1578   0.1063   0.1068   0.9046   0.9629
     0.9634   1.2125   1.2130   1.5493   2.4972   2.8028   2.8035   2.8527
     3.0393   3.0403   3.4331   3.6026   3.6094   3.7348   3.7379   3.7618
     3.8569   4.0380

     occupation numbers 
     1.0000   1.0000   1.0000   1.0000   1.0000   1.0000   1.0000   1.0000
     1.0000   1.0000   1.0000   1.0000   1.0000   1.0000   1.0000   1.0000
     1.0000   1.0000   1.0000   1.0000   1.0000   1.0000   1.0000   1.0000
     1.0000   1.0000   1.0000   1.0000   1.0000   1.0000   1.0000   1.0000
     1.0000   1.0000   1.0000   1.0000   1.0000   1.0000   1.0000   1.0000
     1.0000   1.0000   1.0000   1.0000   1.0000   1.0000   1.0000   1.0000
     1.0000   1.0000   1.0000   1.0000   1.0000   1.0000   1.0000   1.0000
     1.0000   1.0000   1.0000   1.0000   1.0000   1.0000   1.0000   1.0000
     1.0000   1.0000   1.0000   1.0000   1.0000   1.0000   1.0000   1.0000
     1.0000   1.0000   1.0000   1.0000   1.0000   1.0000   1.0000   1.0000
     1.0000   1.0000   1.0000   1.0000   1.0000   1.0000   1.0000   1.0000
     1.0000   1.0000   1.0000   1.0000   1.0000   1.0000   1.0000   1.0000
     1.0000   1.0000   1.0000   1.0000   1.0000   1.0000   1.0000   1.0000
     1.0000   1.0000   1.0000   1.0000   0.0000   0.0000   0.0000   0.0000
     0.0000   0.0000   0.0000   0.0000   0.0000   0.0000   0.0000   0.0000
     0.0000   0.0000   0.0000   0.0000   0.0000   0.0000   0.0000   0.0000
     0.0000   0.0000

     the Fermi energy is    -0.3103 ev

!    total energy              =    -951.88745790 Ry
     Harris-Foulkes estimate   =    -951.88745784 Ry
     estimated scf accuracy    <       0.00000018 Ry

     The total energy is the sum of the following terms:

     one-electron contribution =   -2966.94184854 Ry
     hartree contribution      =    1526.11195814 Ry
     xc contribution           =    -265.71478456 Ry
     ewald contribution        =     754.65721706 Ry
     smearing contrib. (-TS)   =       0.00000000 Ry

     total magnetization       =     0.00 Bohr mag/cell
     absolute magnetization    =     0.00 Bohr mag/cell

     convergence has been achieved in  97 iterations

     Writing output data file gr-12-baricentro.save/

     init_run     :     67.23s CPU     68.34s WALL (       1 calls)
     electrons    :   8824.48s CPU   8985.71s WALL (       1 calls)

     Called by init_run:
     wfcinit      :     37.38s CPU     37.61s WALL (       1 calls)
     wfcinit:atom :      0.04s CPU      0.07s WALL (       2 calls)
     wfcinit:wfcr :     36.98s CPU     37.12s WALL (       2 calls)
     potinit      :     12.59s CPU     12.89s WALL (       1 calls)
     hinit0       :      9.63s CPU      9.65s WALL (       1 calls)

     Called by electrons:
     c_bands      :   5558.74s CPU   5589.69s WALL (      97 calls)
     sum_band     :   1886.21s CPU   1939.68s WALL (      97 calls)
     v_of_rho     :    660.68s CPU    690.82s WALL (      98 calls)
     v_h          :      6.78s CPU      6.94s WALL (      98 calls)
     v_xc         :    653.90s CPU    683.88s WALL (      98 calls)
     newd         :    669.70s CPU    715.94s WALL (      98 calls)
     mix_rho      :     41.92s CPU     42.60s WALL (      97 calls)

     Called by c_bands:
     init_us_2    :     16.16s CPU     16.21s WALL (     390 calls)
     cegterg      :   5517.03s CPU   5547.80s WALL (     194 calls)

     Called by sum_band:
     sum_band:bec :      0.16s CPU      0.16s WALL (     194 calls)
     addusdens    :   1201.47s CPU   1250.81s WALL (      97 calls)

     Called by *egterg:
     h_psi        :   2828.62s CPU   2849.51s WALL (     739 calls)
     s_psi        :    943.20s CPU    943.53s WALL (     739 calls)
     g_psi        :      3.43s CPU      3.44s WALL (     543 calls)
     cdiaghg      :     48.93s CPU     48.95s WALL (     737 calls)
     cegterg:over :    703.85s CPU    704.09s WALL (     543 calls)
     cegterg:upda :    417.02s CPU    419.51s WALL (     543 calls)
     cegterg:last :    304.76s CPU    304.84s WALL (     194 calls)

     Called by h_psi:
     h_psi:pot    :   2825.16s CPU   2842.32s WALL (     739 calls)
     h_psi:calbec :    948.34s CPU    948.71s WALL (     739 calls)
     vloc_psi     :    934.32s CPU    950.86s WALL (     739 calls)
     add_vuspsi   :    942.49s CPU    942.74s WALL (     739 calls)

     General routines
     calbec       :   1366.78s CPU   1367.28s WALL (     933 calls)
     fft          :    367.93s CPU    379.23s WALL (    7344 calls)
     ffts         :      6.33s CPU      6.56s WALL (     390 calls)
     fftw         :   1005.95s CPU   1024.28s WALL (  139840 calls)
     interpolate  :     14.97s CPU     15.41s WALL (     196 calls)

     Parallel routines
     fft_scatt_xy :    242.52s CPU    246.02s WALL (  147574 calls)
     fft_scatt_yz :    460.52s CPU    481.87s WALL (  147574 calls)

     PWSCF        :      2h28m CPU      2h30m WALL


   This run was terminated on:   9:23:19  25Dec2022            

=------------------------------------------------------------------------------=
   JOB DONE.
=------------------------------------------------------------------------------=
