
     Program PWSCF v.6.4.1 starts on 26Dec2022 at 23: 2:12 

     This program is part of the open-source Quantum ESPRESSO suite
     for quantum simulation of materials; please cite
         "P. Giannozzi et al., J. Phys.:Condens. Matter 21 395502 (2009);
         "P. Giannozzi et al., J. Phys.:Condens. Matter 29 465901 (2017);
          URL http://www.quantum-espresso.org", 
     in publications or presentations arising from this work. More details at
     http://www.quantum-espresso.org/quote

     Parallel version (MPI), running on     6 processors

     MPI processes distributed on     1 nodes
     R & G space division:  proc/nbgrp/npool/nimage =       6
     Reading input from distance-1.8.in

     Current dimensions of program PWSCF are:
     Max number of different atomic species (ntypx) = 10
     Max number of k-points (npk) =  40000
     Max angular momentum in pseudopotentials (lmaxx) =  3

     IMPORTANT: XC functional enforced from input :
     Exchange-correlation      = RVV10 ( 1  4 13  4 3 0)
     Any further DFT definition will be discarded
     Please, verify this is what you really want

               file H.pbe-rrkjus.UPF: wavefunction(s)  1S renormalized

     Subspace diagonalization in iterative solution of the eigenvalue problem:
     a serial algorithm will be used


     Parallelization info
     --------------------
     sticks:   dense  smooth     PW     G-vecs:    dense   smooth      PW
     Min        3051    1746    432               270999   117096   14629
     Max        3053    1747    437               271001   117099   14630
     Sum       18313   10477   2611              1626001   702581   87777



     bravais-lattice index     =            4
     lattice parameter (alat)  =      23.2937  a.u.
     unit-cell volume          =    8879.8548 (a.u.)^3
     number of atoms/cell      =           52
     number of atomic types    =            3
     number of electrons       =       216.00
     number of Kohn-Sham states=          130
     kinetic-energy cutoff     =      70.0000  Ry
     charge density cutoff     =     490.0000  Ry
     convergence threshold     =      1.0E-06
     mixing beta               =       0.7000
     number of iterations used =            8  plain     mixing
     Exchange-correlation      = RVV10 ( 1  4 13  4 3 0)

     celldm(1)=  23.293684  celldm(2)=   0.000000  celldm(3)=   0.811261
     celldm(4)=   0.000000  celldm(5)=   0.000000  celldm(6)=   0.000000

     crystal axes: (cart. coord. in units of alat)
               a(1) = (   1.000000   0.000000   0.000000 )  
               a(2) = (  -0.500000   0.866025   0.000000 )  
               a(3) = (   0.000000   0.000000   0.811261 )  

     reciprocal axes: (cart. coord. in units 2 pi/alat)
               b(1) = (  1.000000  0.577350 -0.000000 )  
               b(2) = (  0.000000  1.154701  0.000000 )  
               b(3) = (  0.000000 -0.000000  1.232649 )  


     PseudoPot. # 1 for H  read from file:
     /home/cristian/Escritorio/Proyecto_Grafeno/pseudopotenciales/H.pbe-rrkjus.UPF
     MD5 check sum: 7cc9d459525c9a0585f487a71c3c9563
     Pseudo is Ultrasoft, Zval =  1.0
     Generated by new atomic code, or converted to UPF format
     Using radial grid of 1061 points,  2 beta functions with: 
                l(1) =   0
                l(2) =   0
     Q(r) pseudized with 0 coefficients 


     PseudoPot. # 2 for C  read from file:
     /home/cristian/Escritorio/Proyecto_Grafeno/pseudopotenciales/C.pbe-n-rrkjus_psl.1.0.0.UPF
     MD5 check sum: 1fdd950c42eb37d8afe3dd2f8d12311e
     Pseudo is Ultrasoft + core correction, Zval =  4.0
     Generated using "atomic" code by A. Dal Corso v.6.3MaX
     Using radial grid of 1073 points,  4 beta functions with: 
                l(1) =   0
                l(2) =   0
                l(3) =   1
                l(4) =   1
     Q(r) pseudized with 0 coefficients 


     PseudoPot. # 3 for Ni read from file:
     /home/cristian/Escritorio/Proyecto_Grafeno/pseudopotenciales/Ni.pbe-spn-rrkjus_psl.1.0.0.UPF
     MD5 check sum: 8b3fc9aac6dafe35f580d41bb18c3945
     Pseudo is Ultrasoft + core correction, Zval = 18.0
     Generated using "atomic" code by A. Dal Corso v.6.3
     Using radial grid of 1195 points,  6 beta functions with: 
                l(1) =   0
                l(2) =   0
                l(3) =   1
                l(4) =   1
                l(5) =   2
                l(6) =   2
     Q(r) pseudized with 0 coefficients 


     vdW kernel table read from file rVV10_kernel_table
     MD5 check sum: b8e2538accc0c0b3206b45ba4daaba6c

     atomic species   valence    mass     pseudopotential
        H              1.00     1.00794     H ( 1.00)
        C              4.00    12.01070     C ( 1.00)
        Ni            18.00    58.69340     Ni( 1.00)

     Starting magnetic structure 
     atomic species   magnetization
        H            0.500
        C            0.300
        Ni           0.800

     No symmetry found


                                    s                        frac. trans.

      isym =  1     identity                                     

 cryst.   s( 1) = (     1          0          0      )
                  (     0          1          0      )
                  (     0          0          1      )

 cart.    s( 1) = (  1.0000000  0.0000000  0.0000000 )
                  (  0.0000000  1.0000000  0.0000000 )
                  (  0.0000000  0.0000000  1.0000000 )


     point group C_1 (1)    
     there are  1 classes
     the character table:

       E    
A      1.00

     the symmetry operations in each class and the name of the first element:

     E        1
          identity                                               

   Cartesian axes

     site n.     atom                  positions (alat units)
         1           H   tau(   1) = (   0.2666667   0.4618802   0.1460270  )
         2           H   tau(   2) = (   0.2666667   0.4618802   0.2070397  )
         3           C   tau(   3) = (   0.0000000   0.0000000   0.0000000  )
         4           C   tau(   4) = (   0.0000000   0.1154701   0.0000000  )
         5           C   tau(   5) = (  -0.1000000   0.1732051   0.0000000  )
         6           C   tau(   6) = (  -0.1000000   0.2886751   0.0000000  )
         7           C   tau(   7) = (  -0.2000000   0.3464102   0.0000000  )
         8           C   tau(   8) = (  -0.2000000   0.4618802   0.0000000  )
         9           C   tau(   9) = (  -0.3000000   0.5196152   0.0000000  )
        10           C   tau(  10) = (  -0.3000000   0.6350853   0.0000000  )
        11           C   tau(  11) = (  -0.4000000   0.6928203   0.0000000  )
        12           C   tau(  12) = (  -0.4000000   0.8082904   0.0000000  )
        13           C   tau(  13) = (   0.2000000   0.0000000   0.0000000  )
        14           C   tau(  14) = (   0.2000000   0.1154701   0.0000000  )
        15           C   tau(  15) = (   0.1000000   0.1732051   0.0000000  )
        16           C   tau(  16) = (   0.1000000   0.2886751   0.0000000  )
        17           C   tau(  17) = (   0.0000000   0.3464102   0.0000000  )
        18           C   tau(  18) = (   0.0000000   0.4618802   0.0000000  )
        19           C   tau(  19) = (  -0.1000000   0.5196152   0.0000000  )
        20           C   tau(  20) = (  -0.1000000   0.6350853   0.0000000  )
        21           C   tau(  21) = (  -0.2000000   0.6928203   0.0000000  )
        22           C   tau(  22) = (  -0.2000000   0.8082904   0.0000000  )
        23           C   tau(  23) = (   0.4000000   0.0000000   0.0000000  )
        24           C   tau(  24) = (   0.4000000   0.1154701   0.0000000  )
        25           C   tau(  25) = (   0.3000000   0.1732051   0.0000000  )
        26           C   tau(  26) = (   0.3000000   0.2886751   0.0000000  )
        27           C   tau(  27) = (   0.2000000   0.3464102   0.0000000  )
        28           Ni  tau(  28) = (   0.2000000   0.4618802   0.0000000  )
        29           C   tau(  29) = (   0.1000000   0.5196152   0.0000000  )
        30           C   tau(  30) = (   0.1000000   0.6350853   0.0000000  )
        31           C   tau(  31) = (   0.0000000   0.6928203   0.0000000  )
        32           C   tau(  32) = (   0.0000000   0.8082904   0.0000000  )
        33           C   tau(  33) = (   0.6000000   0.0000000   0.0000000  )
        34           C   tau(  34) = (   0.6000000   0.1154701   0.0000000  )
        35           C   tau(  35) = (   0.5000000   0.1732051   0.0000000  )
        36           C   tau(  36) = (   0.5000000   0.2886751   0.0000000  )
        37           C   tau(  37) = (   0.4000000   0.3464102   0.0000000  )
        38           C   tau(  38) = (   0.4000000   0.4618802   0.0000000  )
        39           C   tau(  39) = (   0.3000000   0.5196152   0.0000000  )
        40           C   tau(  40) = (   0.3000000   0.6350853   0.0000000  )
        41           C   tau(  41) = (   0.2000000   0.6928203   0.0000000  )
        42           C   tau(  42) = (   0.2000000   0.8082904   0.0000000  )
        43           C   tau(  43) = (   0.8000000   0.0000000   0.0000000  )
        44           C   tau(  44) = (   0.8000000   0.1154701   0.0000000  )
        45           C   tau(  45) = (   0.7000000   0.1732051   0.0000000  )
        46           C   tau(  46) = (   0.7000000   0.2886751   0.0000000  )
        47           C   tau(  47) = (   0.6000000   0.3464102   0.0000000  )
        48           C   tau(  48) = (   0.6000000   0.4618802   0.0000000  )
        49           C   tau(  49) = (   0.5000000   0.5196152   0.0000000  )
        50           C   tau(  50) = (   0.5000000   0.6350853   0.0000000  )
        51           C   tau(  51) = (   0.4000000   0.6928203   0.0000000  )
        52           C   tau(  52) = (   0.4000000   0.8082904   0.0000000  )

   Crystallographic axes

     site n.     atom                  positions (cryst. coord.)
         1           H   tau(   1) = (  0.5333333  0.5333333  0.1800000  )
         2           H   tau(   2) = (  0.5333333  0.5333333  0.2552072  )
         3           C   tau(   3) = (  0.0000000  0.0000000  0.0000000  )
         4           C   tau(   4) = (  0.0666667  0.1333333  0.0000000  )
         5           C   tau(   5) = (  0.0000000  0.2000000  0.0000000  )
         6           C   tau(   6) = (  0.0666667  0.3333333  0.0000000  )
         7           C   tau(   7) = (  0.0000000  0.4000000  0.0000000  )
         8           C   tau(   8) = (  0.0666667  0.5333333  0.0000000  )
         9           C   tau(   9) = (  0.0000000  0.6000000  0.0000000  )
        10           C   tau(  10) = (  0.0666667  0.7333333  0.0000000  )
        11           C   tau(  11) = (  0.0000000  0.8000000  0.0000000  )
        12           C   tau(  12) = (  0.0666667  0.9333333  0.0000000  )
        13           C   tau(  13) = (  0.2000000  0.0000000  0.0000000  )
        14           C   tau(  14) = (  0.2666667  0.1333333  0.0000000  )
        15           C   tau(  15) = (  0.2000000  0.2000000  0.0000000  )
        16           C   tau(  16) = (  0.2666667  0.3333333  0.0000000  )
        17           C   tau(  17) = (  0.2000000  0.4000000  0.0000000  )
        18           C   tau(  18) = (  0.2666667  0.5333333  0.0000000  )
        19           C   tau(  19) = (  0.2000000  0.6000000  0.0000000  )
        20           C   tau(  20) = (  0.2666667  0.7333333  0.0000000  )
        21           C   tau(  21) = (  0.2000000  0.8000000  0.0000000  )
        22           C   tau(  22) = (  0.2666667  0.9333333  0.0000000  )
        23           C   tau(  23) = (  0.4000000  0.0000000  0.0000000  )
        24           C   tau(  24) = (  0.4666667  0.1333333  0.0000000  )
        25           C   tau(  25) = (  0.4000000  0.2000000  0.0000000  )
        26           C   tau(  26) = (  0.4666667  0.3333333  0.0000000  )
        27           C   tau(  27) = (  0.4000000  0.4000000  0.0000000  )
        28           Ni  tau(  28) = (  0.4666667  0.5333333  0.0000000  )
        29           C   tau(  29) = (  0.4000000  0.6000000  0.0000000  )
        30           C   tau(  30) = (  0.4666667  0.7333333  0.0000000  )
        31           C   tau(  31) = (  0.4000000  0.8000000  0.0000000  )
        32           C   tau(  32) = (  0.4666667  0.9333333  0.0000000  )
        33           C   tau(  33) = (  0.6000000  0.0000000  0.0000000  )
        34           C   tau(  34) = (  0.6666667  0.1333333  0.0000000  )
        35           C   tau(  35) = (  0.6000000  0.2000000  0.0000000  )
        36           C   tau(  36) = (  0.6666667  0.3333333  0.0000000  )
        37           C   tau(  37) = (  0.6000000  0.4000000  0.0000000  )
        38           C   tau(  38) = (  0.6666667  0.5333333  0.0000000  )
        39           C   tau(  39) = (  0.6000000  0.6000000  0.0000000  )
        40           C   tau(  40) = (  0.6666667  0.7333333  0.0000000  )
        41           C   tau(  41) = (  0.6000000  0.8000000  0.0000000  )
        42           C   tau(  42) = (  0.6666667  0.9333333  0.0000000  )
        43           C   tau(  43) = (  0.8000000  0.0000000  0.0000000  )
        44           C   tau(  44) = (  0.8666667  0.1333333  0.0000000  )
        45           C   tau(  45) = (  0.8000000  0.2000000  0.0000000  )
        46           C   tau(  46) = (  0.8666667  0.3333333  0.0000000  )
        47           C   tau(  47) = (  0.8000000  0.4000000  0.0000000  )
        48           C   tau(  48) = (  0.8666667  0.5333333  0.0000000  )
        49           C   tau(  49) = (  0.8000000  0.6000000  0.0000000  )
        50           C   tau(  50) = (  0.8666667  0.7333333  0.0000000  )
        51           C   tau(  51) = (  0.8000000  0.8000000  0.0000000  )
        52           C   tau(  52) = (  0.8666667  0.9333333  0.0000000  )

     number of k points=     1  Marzari-Vanderbilt smearing, width (Ry)=  0.0010
                       cart. coord. in units 2pi/alat
        k(    1) = (   0.0000000   0.0000000   0.0000000), wk =   1.0000000

                       cryst. coord.
        k(    1) = (   0.0000000   0.0000000   0.0000000), wk =   1.0000000

     Dense  grid:  1626001 G-vectors     FFT dimensions: ( 180, 180, 135)

     Smooth grid:   702581 G-vectors     FFT dimensions: ( 125, 125, 108)

     Dynamical RAM for                 wfc:      29.03 MB

     Dynamical RAM for     wfc (w. buffer):      87.10 MB

     Dynamical RAM for           str. fact:      12.41 MB

     Dynamical RAM for           local pot:       0.00 MB

     Dynamical RAM for          nlocal pot:      92.46 MB

     Dynamical RAM for                qrad:      19.73 MB

     Dynamical RAM for          rho,v,vnew:      58.92 MB

     Dynamical RAM for               rhoin:      19.64 MB

     Dynamical RAM for            rho*nmix:     132.32 MB

     Dynamical RAM for           G-vectors:      16.40 MB

     Dynamical RAM for          h,s,v(r/c):      12.38 MB

     Dynamical RAM for          <psi|beta>:       0.82 MB

     Dynamical RAM for                 psi:     116.14 MB

     Dynamical RAM for                hpsi:     116.14 MB

     Dynamical RAM for                spsi:     116.14 MB

     Dynamical RAM for      wfcinit/wfcrot:      93.90 MB

     Dynamical RAM for           addusdens:     975.89 MB

     Estimated static dynamical RAM per process >     489.64 MB

     Estimated max dynamical RAM per process >       1.43 GB

     Estimated total dynamical RAM >       8.59 GB
     Generating pointlists ...
     new r_m :   0.0252 (alat units)  0.5862 (a.u.) for type    1
     new r_m :   0.0476 (alat units)  1.1095 (a.u.) for type    2
     new r_m :   0.0476 (alat units)  1.1095 (a.u.) for type    3

     Check: negative core charge=   -0.000002

     Initial potential from superposition of free atoms

     starting charge  215.80530, renormalised to  216.00000

     negative rho (up, down):  1.697E-04 1.891E-02


---------------------------------------------------------------------------------
Carrying out rVV10 run using the following parameters:
Nqs =      20    Nr_points =    1024   r_max =   100.000
b_value =  6.30000    beta =  0.00901
     q_mesh =  0.00010000  0.00030000  0.00058939  0.00100810
               0.00161396  0.00249058  0.00375900  0.00559430
               0.00824984  0.01209221  0.01765183  0.02569619
               0.03733578  0.05417739  0.07854596  0.11380545
               0.16482331  0.23864234  0.34545298  0.50000000

Gradients computed in Reciprocal space

---------------------------------------------------------------------------------


     Starting wfcs are  208 randomized atomic wfcs

     total cpu time spent up to now is       73.5 secs

     Self-consistent Calculation

     iteration #  1     ecut=    70.00 Ry     beta= 0.70
     Davidson diagonalization with overlap
     ethr =  1.00E-02,  avg # of iterations =  6.0

     negative rho (up, down):  3.402E-04 1.639E-02

     total cpu time spent up to now is      206.6 secs

     total energy              =    -946.97772332 Ry
     Harris-Foulkes estimate   =    -949.66894359 Ry
     estimated scf accuracy    <      13.94946483 Ry

     total magnetization       =     6.00 Bohr mag/cell
     absolute magnetization    =     6.71 Bohr mag/cell

     iteration #  2     ecut=    70.00 Ry     beta= 0.70
     Davidson diagonalization with overlap
     ethr =  6.46E-03,  avg # of iterations =  3.5

     negative rho (up, down):  2.792E-02 3.619E-01

     total cpu time spent up to now is      323.2 secs

     total energy              =    -953.91706011 Ry
     Harris-Foulkes estimate   =    -956.13550202 Ry
     estimated scf accuracy    <      52.07244165 Ry

     total magnetization       =     4.00 Bohr mag/cell
     absolute magnetization    =    11.00 Bohr mag/cell

     iteration #  3     ecut=    70.00 Ry     beta= 0.70
     Davidson diagonalization with overlap
     ethr =  6.46E-03,  avg # of iterations =  3.0

     negative rho (up, down):  2.428E-02 5.524E-01

     total cpu time spent up to now is      425.6 secs

     total energy              =    -945.72891993 Ry
     Harris-Foulkes estimate   =    -966.80901041 Ry
     estimated scf accuracy    <     796.40804483 Ry

     total magnetization       =     0.00 Bohr mag/cell
     absolute magnetization    =    41.03 Bohr mag/cell

     iteration #  4     ecut=    70.00 Ry     beta= 0.70
     Davidson diagonalization with overlap
     ethr =  6.46E-03,  avg # of iterations =  3.5

     negative rho (up, down):  1.571E-02 5.076E-01

     total cpu time spent up to now is      533.7 secs

     total energy              =    -948.82648003 Ry
     Harris-Foulkes estimate   =    -953.09736863 Ry
     estimated scf accuracy    <      82.51384591 Ry

     total magnetization       =    -0.00 Bohr mag/cell
     absolute magnetization    =    13.82 Bohr mag/cell

     iteration #  5     ecut=    70.00 Ry     beta= 0.70
     Davidson diagonalization with overlap
     ethr =  6.46E-03,  avg # of iterations =  3.0

     negative rho (up, down):  2.710E-02 5.009E-01

     total cpu time spent up to now is      656.1 secs

     total energy              =    -949.46283386 Ry
     Harris-Foulkes estimate   =    -958.82993650 Ry
     estimated scf accuracy    <     451.50924232 Ry

     total magnetization       =     2.03 Bohr mag/cell
     absolute magnetization    =    33.10 Bohr mag/cell

     iteration #  6     ecut=    70.00 Ry     beta= 0.70
     Davidson diagonalization with overlap
     ethr =  6.46E-03,  avg # of iterations =  2.0

     negative rho (up, down):  1.752E-02 4.845E-01

     total cpu time spent up to now is      763.9 secs

     total energy              =    -949.96385412 Ry
     Harris-Foulkes estimate   =    -953.19729510 Ry
     estimated scf accuracy    <     129.92306627 Ry

     total magnetization       =     2.00 Bohr mag/cell
     absolute magnetization    =    18.16 Bohr mag/cell

     iteration #  7     ecut=    70.00 Ry     beta= 0.70
     Davidson diagonalization with overlap
     ethr =  6.46E-03,  avg # of iterations =  2.0

     negative rho (up, down):  7.164E-02 4.429E-01

     total cpu time spent up to now is      872.7 secs

     total energy              =    -952.03511466 Ry
     Harris-Foulkes estimate   =    -954.17599209 Ry
     estimated scf accuracy    <     179.62102338 Ry

     total magnetization       =     2.16 Bohr mag/cell
     absolute magnetization    =    21.04 Bohr mag/cell

     iteration #  8     ecut=    70.00 Ry     beta= 0.70
     Davidson diagonalization with overlap
     ethr =  6.46E-03,  avg # of iterations =  2.0

     negative rho (up, down):  7.732E-02 4.284E-01

     total cpu time spent up to now is      967.9 secs

     total energy              =    -949.91729698 Ry
     Harris-Foulkes estimate   =    -952.51141142 Ry
     estimated scf accuracy    <      72.91349798 Ry

     total magnetization       =     2.00 Bohr mag/cell
     absolute magnetization    =    13.66 Bohr mag/cell

     iteration #  9     ecut=    70.00 Ry     beta= 0.70
     Davidson diagonalization with overlap
     ethr =  6.46E-03,  avg # of iterations =  2.0

     negative rho (up, down):  2.549E-02 3.466E-01

     total cpu time spent up to now is     1068.2 secs

     total energy              =    -951.59498624 Ry
     Harris-Foulkes estimate   =    -951.85512691 Ry
     estimated scf accuracy    <      13.78341820 Ry

     total magnetization       =    -0.00 Bohr mag/cell
     absolute magnetization    =     5.65 Bohr mag/cell

     iteration # 10     ecut=    70.00 Ry     beta= 0.70
     Davidson diagonalization with overlap
     ethr =  6.38E-03,  avg # of iterations =  1.5

     negative rho (up, down):  3.823E-02 3.808E-01

     total cpu time spent up to now is     1162.0 secs

     total energy              =    -951.62570231 Ry
     Harris-Foulkes estimate   =    -951.90200944 Ry
     estimated scf accuracy    <       7.78167854 Ry

     total magnetization       =    -0.00 Bohr mag/cell
     absolute magnetization    =     3.64 Bohr mag/cell

     iteration # 11     ecut=    70.00 Ry     beta= 0.70
     Davidson diagonalization with overlap
     ethr =  3.60E-03,  avg # of iterations =  1.5

     negative rho (up, down):  1.488E-02 1.841E-01

     total cpu time spent up to now is     1257.2 secs

     total energy              =    -951.78213693 Ry
     Harris-Foulkes estimate   =    -951.84442294 Ry
     estimated scf accuracy    <       1.04885489 Ry

     total magnetization       =    -0.00 Bohr mag/cell
     absolute magnetization    =     0.88 Bohr mag/cell

     iteration # 12     ecut=    70.00 Ry     beta= 0.70
     Davidson diagonalization with overlap
     ethr =  4.86E-04,  avg # of iterations =  6.0

     negative rho (up, down):  2.114E-02 1.674E-01

     total cpu time spent up to now is     1358.6 secs

     total energy              =    -951.77353365 Ry
     Harris-Foulkes estimate   =    -951.87880419 Ry
     estimated scf accuracy    <       1.73741309 Ry

     total magnetization       =     0.00 Bohr mag/cell
     absolute magnetization    =     1.40 Bohr mag/cell

     iteration # 13     ecut=    70.00 Ry     beta= 0.70
     Davidson diagonalization with overlap
     ethr =  4.86E-04,  avg # of iterations =  2.0

     negative rho (up, down):  2.012E-02 1.363E-01

     total cpu time spent up to now is     1455.5 secs

     total energy              =    -951.78121911 Ry
     Harris-Foulkes estimate   =    -951.87617259 Ry
     estimated scf accuracy    <       1.50225345 Ry

     total magnetization       =    -0.00 Bohr mag/cell
     absolute magnetization    =     1.32 Bohr mag/cell

     iteration # 14     ecut=    70.00 Ry     beta= 0.70
     Davidson diagonalization with overlap
     ethr =  4.86E-04,  avg # of iterations =  2.0

     negative rho (up, down):  2.948E-03 1.763E-01

     total cpu time spent up to now is     1551.8 secs

     total energy              =    -951.82647845 Ry
     Harris-Foulkes estimate   =    -951.85122212 Ry
     estimated scf accuracy    <       0.15272647 Ry

     total magnetization       =     0.00 Bohr mag/cell
     absolute magnetization    =     0.41 Bohr mag/cell

     iteration # 15     ecut=    70.00 Ry     beta= 0.70
     Davidson diagonalization with overlap
     ethr =  7.07E-05,  avg # of iterations =  2.5

     negative rho (up, down):  4.612E-03 2.458E-01

     total cpu time spent up to now is     1653.3 secs

     total energy              =    -951.85452062 Ry
     Harris-Foulkes estimate   =    -951.84897595 Ry
     estimated scf accuracy    <       0.41441950 Ry

     total magnetization       =    -0.00 Bohr mag/cell
     absolute magnetization    =     0.99 Bohr mag/cell

     iteration # 16     ecut=    70.00 Ry     beta= 0.70
     Davidson diagonalization with overlap
     ethr =  7.07E-05,  avg # of iterations =  4.5

     negative rho (up, down):  5.068E-03 3.090E-01

     total cpu time spent up to now is     1749.2 secs

     total energy              =    -951.81246603 Ry
     Harris-Foulkes estimate   =    -951.85856644 Ry
     estimated scf accuracy    <       1.11808932 Ry

     total magnetization       =     0.00 Bohr mag/cell
     absolute magnetization    =     1.62 Bohr mag/cell

     iteration # 17     ecut=    70.00 Ry     beta= 0.70
     Davidson diagonalization with overlap
     ethr =  7.07E-05,  avg # of iterations =  2.0

     negative rho (up, down):  2.477E-03 2.579E-01

     total cpu time spent up to now is     1850.4 secs

     total energy              =    -951.84532465 Ry
     Harris-Foulkes estimate   =    -951.83889979 Ry
     estimated scf accuracy    <       0.23224904 Ry

     total magnetization       =    -0.00 Bohr mag/cell
     absolute magnetization    =     0.73 Bohr mag/cell

     iteration # 18     ecut=    70.00 Ry     beta= 0.70
     Davidson diagonalization with overlap
     ethr =  7.07E-05,  avg # of iterations =  1.5

     negative rho (up, down):  3.413E-03 2.766E-01

     total cpu time spent up to now is     1943.5 secs

     total energy              =    -951.83713848 Ry
     Harris-Foulkes estimate   =    -951.84651064 Ry
     estimated scf accuracy    <       0.40703018 Ry

     total magnetization       =     0.00 Bohr mag/cell
     absolute magnetization    =     1.01 Bohr mag/cell

     iteration # 19     ecut=    70.00 Ry     beta= 0.70
     Davidson diagonalization with overlap
     ethr =  7.07E-05,  avg # of iterations =  2.0

     negative rho (up, down):  8.008E-03 3.071E-01

     total cpu time spent up to now is     2034.0 secs

     total energy              =    -951.83891307 Ry
     Harris-Foulkes estimate   =    -951.84615114 Ry
     estimated scf accuracy    <       0.55718664 Ry

     total magnetization       =    -0.00 Bohr mag/cell
     absolute magnetization    =     1.10 Bohr mag/cell

     iteration # 20     ecut=    70.00 Ry     beta= 0.70
     Davidson diagonalization with overlap
     ethr =  7.07E-05,  avg # of iterations =  2.0

     negative rho (up, down):  6.778E-03 2.895E-01

     total cpu time spent up to now is     2121.2 secs

     total energy              =    -951.83499533 Ry
     Harris-Foulkes estimate   =    -951.84038780 Ry
     estimated scf accuracy    <       0.20775054 Ry

     total magnetization       =    -0.00 Bohr mag/cell
     absolute magnetization    =     0.71 Bohr mag/cell

     iteration # 21     ecut=    70.00 Ry     beta= 0.70
     Davidson diagonalization with overlap
     ethr =  7.07E-05,  avg # of iterations =  1.5

     negative rho (up, down):  1.570E-03 1.928E-01

     total cpu time spent up to now is     2208.6 secs

     total energy              =    -951.84157125 Ry
     Harris-Foulkes estimate   =    -951.83898768 Ry
     estimated scf accuracy    <       0.00692814 Ry

     total magnetization       =     0.00 Bohr mag/cell
     absolute magnetization    =     0.17 Bohr mag/cell

     iteration # 22     ecut=    70.00 Ry     beta= 0.70
     Davidson diagonalization with overlap
     ethr =  3.21E-06,  avg # of iterations =  7.0

     negative rho (up, down):  1.796E-03 1.354E-01

     total cpu time spent up to now is     2308.2 secs

     total energy              =    -951.84218975 Ry
     Harris-Foulkes estimate   =    -951.84244668 Ry
     estimated scf accuracy    <       0.00909205 Ry

     total magnetization       =    -0.00 Bohr mag/cell
     absolute magnetization    =     0.15 Bohr mag/cell

     iteration # 23     ecut=    70.00 Ry     beta= 0.70
     Davidson diagonalization with overlap
     ethr =  3.21E-06,  avg # of iterations =  2.5

     negative rho (up, down):  1.314E-03 5.399E-02

     total cpu time spent up to now is     2399.5 secs

     total energy              =    -951.84254682 Ry
     Harris-Foulkes estimate   =    -951.84281002 Ry
     estimated scf accuracy    <       0.00610666 Ry

     total magnetization       =    -0.00 Bohr mag/cell
     absolute magnetization    =     0.11 Bohr mag/cell

     iteration # 24     ecut=    70.00 Ry     beta= 0.70
     Davidson diagonalization with overlap
     ethr =  2.83E-06,  avg # of iterations =  3.5

     negative rho (up, down):  1.233E-03 2.234E-02

     total cpu time spent up to now is     2493.1 secs

     total energy              =    -951.84278099 Ry
     Harris-Foulkes estimate   =    -951.84322062 Ry
     estimated scf accuracy    <       0.00238839 Ry

     total magnetization       =    -0.00 Bohr mag/cell
     absolute magnetization    =     0.06 Bohr mag/cell

     iteration # 25     ecut=    70.00 Ry     beta= 0.70
     Davidson diagonalization with overlap
     ethr =  1.11E-06,  avg # of iterations =  2.5

     negative rho (up, down):  1.440E-03 4.966E-02

     total cpu time spent up to now is     2584.8 secs

     total energy              =    -951.84287072 Ry
     Harris-Foulkes estimate   =    -951.84313815 Ry
     estimated scf accuracy    <       0.00387693 Ry

     total magnetization       =     0.00 Bohr mag/cell
     absolute magnetization    =     0.08 Bohr mag/cell

     iteration # 26     ecut=    70.00 Ry     beta= 0.70
     Davidson diagonalization with overlap
     ethr =  1.11E-06,  avg # of iterations =  2.0

     negative rho (up, down):  1.293E-03 4.464E-02

     total cpu time spent up to now is     2673.5 secs

     total energy              =    -951.84296804 Ry
     Harris-Foulkes estimate   =    -951.84306395 Ry
     estimated scf accuracy    <       0.00297894 Ry

     total magnetization       =     0.00 Bohr mag/cell
     absolute magnetization    =     0.07 Bohr mag/cell

     iteration # 27     ecut=    70.00 Ry     beta= 0.70
     Davidson diagonalization with overlap
     ethr =  1.11E-06,  avg # of iterations =  2.0

     negative rho (up, down):  1.205E-03 5.363E-02

     total cpu time spent up to now is     2760.6 secs

     total energy              =    -951.84310105 Ry
     Harris-Foulkes estimate   =    -951.84306410 Ry
     estimated scf accuracy    <       0.00138746 Ry

     total magnetization       =    -0.00 Bohr mag/cell
     absolute magnetization    =     0.07 Bohr mag/cell

     iteration # 28     ecut=    70.00 Ry     beta= 0.70
     Davidson diagonalization with overlap
     ethr =  6.42E-07,  avg # of iterations =  2.0

     negative rho (up, down):  1.203E-03 9.758E-02

     total cpu time spent up to now is     2848.4 secs

     total energy              =    -951.84291269 Ry
     Harris-Foulkes estimate   =    -951.84313822 Ry
     estimated scf accuracy    <       0.00481920 Ry

     total magnetization       =     0.00 Bohr mag/cell
     absolute magnetization    =     0.12 Bohr mag/cell

     iteration # 29     ecut=    70.00 Ry     beta= 0.70
     Davidson diagonalization with overlap
     ethr =  6.42E-07,  avg # of iterations =  2.5

     negative rho (up, down):  1.213E-03 8.228E-02

     total cpu time spent up to now is     2937.2 secs

     total energy              =    -951.84302878 Ry
     Harris-Foulkes estimate   =    -951.84297772 Ry
     estimated scf accuracy    <       0.00198270 Ry

     total magnetization       =    -0.00 Bohr mag/cell
     absolute magnetization    =     0.08 Bohr mag/cell

     iteration # 30     ecut=    70.00 Ry     beta= 0.70
     Davidson diagonalization with overlap
     ethr =  6.42E-07,  avg # of iterations =  1.0

     negative rho (up, down):  1.221E-03 8.061E-02

     total cpu time spent up to now is     3021.3 secs

     total energy              =    -951.84305366 Ry
     Harris-Foulkes estimate   =    -951.84303060 Ry
     estimated scf accuracy    <       0.00174637 Ry

     total magnetization       =    -0.00 Bohr mag/cell
     absolute magnetization    =     0.08 Bohr mag/cell

     iteration # 31     ecut=    70.00 Ry     beta= 0.70
     Davidson diagonalization with overlap
     ethr =  6.42E-07,  avg # of iterations =  2.0

     negative rho (up, down):  1.318E-03 1.123E-01

     total cpu time spent up to now is     3107.1 secs

     total energy              =    -951.84291213 Ry
     Harris-Foulkes estimate   =    -951.84308857 Ry
     estimated scf accuracy    <       0.00507992 Ry

     total magnetization       =     0.00 Bohr mag/cell
     absolute magnetization    =     0.12 Bohr mag/cell

     iteration # 32     ecut=    70.00 Ry     beta= 0.70
     Davidson diagonalization with overlap
     ethr =  6.42E-07,  avg # of iterations =  2.0

     negative rho (up, down):  1.217E-03 9.419E-02

     total cpu time spent up to now is     3193.5 secs

     total energy              =    -951.84305378 Ry
     Harris-Foulkes estimate   =    -951.84295771 Ry
     estimated scf accuracy    <       0.00200947 Ry

     total magnetization       =     0.00 Bohr mag/cell
     absolute magnetization    =     0.08 Bohr mag/cell

     iteration # 33     ecut=    70.00 Ry     beta= 0.70
     Davidson diagonalization with overlap
     ethr =  6.42E-07,  avg # of iterations =  2.0

     negative rho (up, down):  1.404E-03 1.190E-01

     total cpu time spent up to now is     3280.3 secs

     total energy              =    -951.84278456 Ry
     Harris-Foulkes estimate   =    -951.84312927 Ry
     estimated scf accuracy    <       0.00645059 Ry

     total magnetization       =     0.00 Bohr mag/cell
     absolute magnetization    =     0.12 Bohr mag/cell

     iteration # 34     ecut=    70.00 Ry     beta= 0.70
     Davidson diagonalization with overlap
     ethr =  6.42E-07,  avg # of iterations =  2.0

     negative rho (up, down):  1.259E-03 8.213E-02

     total cpu time spent up to now is     3367.4 secs

     total energy              =    -951.84296158 Ry
     Harris-Foulkes estimate   =    -951.84290967 Ry
     estimated scf accuracy    <       0.00132498 Ry

     total magnetization       =     0.00 Bohr mag/cell
     absolute magnetization    =     0.06 Bohr mag/cell

     iteration # 35     ecut=    70.00 Ry     beta= 0.70
     Davidson diagonalization with overlap
     ethr =  6.13E-07,  avg # of iterations =  2.0

     negative rho (up, down):  1.625E-03 8.076E-02

     total cpu time spent up to now is     3458.1 secs

     total energy              =    -951.84274693 Ry
     Harris-Foulkes estimate   =    -951.84319656 Ry
     estimated scf accuracy    <       0.00806405 Ry

     total magnetization       =     0.00 Bohr mag/cell
     absolute magnetization    =     0.10 Bohr mag/cell

     iteration # 36     ecut=    70.00 Ry     beta= 0.70
     Davidson diagonalization with overlap
     ethr =  6.13E-07,  avg # of iterations =  2.0

     negative rho (up, down):  1.316E-03 8.635E-02

     total cpu time spent up to now is     3549.5 secs

     total energy              =    -951.84347065 Ry
     Harris-Foulkes estimate   =    -951.84301075 Ry
     estimated scf accuracy    <       0.00622290 Ry

     total magnetization       =    -0.00 Bohr mag/cell
     absolute magnetization    =     0.10 Bohr mag/cell

     iteration # 37     ecut=    70.00 Ry     beta= 0.70
     Davidson diagonalization with overlap
     ethr =  6.13E-07,  avg # of iterations =  3.0

     negative rho (up, down):  2.677E-03 2.799E-01

     total cpu time spent up to now is     3657.7 secs

     total energy              =    -951.83366908 Ry
     Harris-Foulkes estimate   =    -951.84973627 Ry
     estimated scf accuracy    <       0.40758032 Ry

     total magnetization       =     0.00 Bohr mag/cell
     absolute magnetization    =     0.95 Bohr mag/cell

     iteration # 38     ecut=    70.00 Ry     beta= 0.70
     Davidson diagonalization with overlap
     ethr =  6.13E-07,  avg # of iterations =  5.5

     negative rho (up, down):  1.884E-03 2.159E-01

     total cpu time spent up to now is     3777.7 secs

     total energy              =    -951.84161974 Ry
     Harris-Foulkes estimate   =    -951.84079903 Ry
     estimated scf accuracy    <       0.05104241 Ry

     total magnetization       =    -0.00 Bohr mag/cell
     absolute magnetization    =     0.34 Bohr mag/cell

     iteration # 39     ecut=    70.00 Ry     beta= 0.70
     Davidson diagonalization with overlap
     ethr =  6.13E-07,  avg # of iterations =  4.5

     negative rho (up, down):  2.058E-03 1.482E-01

     total cpu time spent up to now is     3879.0 secs

     total energy              =    -951.84191271 Ry
     Harris-Foulkes estimate   =    -951.84216484 Ry
     estimated scf accuracy    <       0.01386365 Ry

     total magnetization       =    -0.00 Bohr mag/cell
     absolute magnetization    =     0.15 Bohr mag/cell

     iteration # 40     ecut=    70.00 Ry     beta= 0.70
     Davidson diagonalization with overlap
     ethr =  6.13E-07,  avg # of iterations =  3.0

     negative rho (up, down):  1.250E-03 9.053E-02

     total cpu time spent up to now is     3976.7 secs

     total energy              =    -951.84307660 Ry
     Harris-Foulkes estimate   =    -951.84253319 Ry
     estimated scf accuracy    <       0.00618922 Ry

     total magnetization       =     0.00 Bohr mag/cell
     absolute magnetization    =     0.11 Bohr mag/cell

     iteration # 41     ecut=    70.00 Ry     beta= 0.70
     Davidson diagonalization with overlap
     ethr =  6.13E-07,  avg # of iterations =  3.0

     negative rho (up, down):  1.414E-03 1.177E-01

     total cpu time spent up to now is     4064.2 secs

     total energy              =    -951.84284972 Ry
     Harris-Foulkes estimate   =    -951.84309227 Ry
     estimated scf accuracy    <       0.00648143 Ry

     total magnetization       =    -0.00 Bohr mag/cell
     absolute magnetization    =     0.12 Bohr mag/cell

     iteration # 42     ecut=    70.00 Ry     beta= 0.70
     Davidson diagonalization with overlap
     ethr =  6.13E-07,  avg # of iterations =  2.0

     negative rho (up, down):  1.305E-03 9.090E-02

     total cpu time spent up to now is     4150.4 secs

     total energy              =    -951.84299899 Ry
     Harris-Foulkes estimate   =    -951.84288233 Ry
     estimated scf accuracy    <       0.00151365 Ry

     total magnetization       =     0.00 Bohr mag/cell
     absolute magnetization    =     0.06 Bohr mag/cell

     iteration # 43     ecut=    70.00 Ry     beta= 0.70
     Davidson diagonalization with overlap
     ethr =  6.13E-07,  avg # of iterations =  1.5

     negative rho (up, down):  1.451E-03 9.231E-02

     total cpu time spent up to now is     4235.1 secs

     total energy              =    -951.84282882 Ry
     Harris-Foulkes estimate   =    -951.84303004 Ry
     estimated scf accuracy    <       0.00350550 Ry

     total magnetization       =     0.00 Bohr mag/cell
     absolute magnetization    =     0.08 Bohr mag/cell

     iteration # 44     ecut=    70.00 Ry     beta= 0.70
     Davidson diagonalization with overlap
     ethr =  6.13E-07,  avg # of iterations =  2.0

     negative rho (up, down):  1.230E-03 3.761E-02

     total cpu time spent up to now is     4322.3 secs

     total energy              =    -951.84301830 Ry
     Harris-Foulkes estimate   =    -951.84295774 Ry
     estimated scf accuracy    <       0.00061695 Ry

     total magnetization       =    -0.00 Bohr mag/cell
     absolute magnetization    =     0.03 Bohr mag/cell

     iteration # 45     ecut=    70.00 Ry     beta= 0.70
     Davidson diagonalization with overlap
     ethr =  2.86E-07,  avg # of iterations =  2.5

     negative rho (up, down):  1.308E-03 1.687E-02

     total cpu time spent up to now is     4414.8 secs

     total energy              =    -951.84302491 Ry
     Harris-Foulkes estimate   =    -951.84311722 Ry
     estimated scf accuracy    <       0.00140288 Ry

     total magnetization       =    -0.00 Bohr mag/cell
     absolute magnetization    =     0.03 Bohr mag/cell

     iteration # 46     ecut=    70.00 Ry     beta= 0.70
     Davidson diagonalization with overlap
     ethr =  2.86E-07,  avg # of iterations =  2.5

     negative rho (up, down):  1.270E-03 2.671E-02

     total cpu time spent up to now is     4504.8 secs

     total energy              =    -951.84304277 Ry
     Harris-Foulkes estimate   =    -951.84310468 Ry
     estimated scf accuracy    <       0.00129369 Ry

     total magnetization       =     0.00 Bohr mag/cell
     absolute magnetization    =     0.03 Bohr mag/cell

     iteration # 47     ecut=    70.00 Ry     beta= 0.70
     Davidson diagonalization with overlap
     ethr =  2.86E-07,  avg # of iterations =  2.0

     negative rho (up, down):  1.203E-03 3.066E-02

     total cpu time spent up to now is     4593.8 secs

     total energy              =    -951.84310860 Ry
     Harris-Foulkes estimate   =    -951.84308664 Ry
     estimated scf accuracy    <       0.00045889 Ry

     total magnetization       =    -0.00 Bohr mag/cell
     absolute magnetization    =     0.04 Bohr mag/cell

     iteration # 48     ecut=    70.00 Ry     beta= 0.70
     Davidson diagonalization with overlap
     ethr =  2.12E-07,  avg # of iterations =  2.0

     negative rho (up, down):  1.222E-03 6.017E-02

     total cpu time spent up to now is     4682.4 secs

     total energy              =    -951.84305180 Ry
     Harris-Foulkes estimate   =    -951.84313420 Ry
     estimated scf accuracy    <       0.00191463 Ry

     total magnetization       =     0.00 Bohr mag/cell
     absolute magnetization    =     0.07 Bohr mag/cell

     iteration # 49     ecut=    70.00 Ry     beta= 0.70
     Davidson diagonalization with overlap
     ethr =  2.12E-07,  avg # of iterations =  2.5

     negative rho (up, down):  1.236E-03 4.680E-02

     total cpu time spent up to now is     4768.5 secs

     total energy              =    -951.84304579 Ry
     Harris-Foulkes estimate   =    -951.84306481 Ry
     estimated scf accuracy    <       0.00071007 Ry

     total magnetization       =    -0.00 Bohr mag/cell
     absolute magnetization    =     0.04 Bohr mag/cell

     iteration # 50     ecut=    70.00 Ry     beta= 0.70
     Davidson diagonalization with overlap
     ethr =  2.12E-07,  avg # of iterations =  2.0

     negative rho (up, down):  1.228E-03 4.916E-02

     total cpu time spent up to now is     4857.1 secs

     total energy              =    -951.84312274 Ry
     Harris-Foulkes estimate   =    -951.84309137 Ry
     estimated scf accuracy    <       0.00122131 Ry

     total magnetization       =    -0.00 Bohr mag/cell
     absolute magnetization    =     0.05 Bohr mag/cell

     iteration # 51     ecut=    70.00 Ry     beta= 0.70
     Davidson diagonalization with overlap
     ethr =  2.12E-07,  avg # of iterations =  2.0

     negative rho (up, down):  1.309E-03 9.855E-02

     total cpu time spent up to now is     4943.0 secs

     total energy              =    -951.84294123 Ry
     Harris-Foulkes estimate   =    -951.84313860 Ry
     estimated scf accuracy    <       0.00386958 Ry

     total magnetization       =     0.00 Bohr mag/cell
     absolute magnetization    =     0.09 Bohr mag/cell

     iteration # 52     ecut=    70.00 Ry     beta= 0.70
     Davidson diagonalization with overlap
     ethr =  2.12E-07,  avg # of iterations =  2.5

     negative rho (up, down):  1.223E-03 6.702E-02

     total cpu time spent up to now is     5032.1 secs

     total energy              =    -951.84308216 Ry
     Harris-Foulkes estimate   =    -951.84297713 Ry
     estimated scf accuracy    <       0.00070304 Ry

     total magnetization       =    -0.00 Bohr mag/cell
     absolute magnetization    =     0.04 Bohr mag/cell

     iteration # 53     ecut=    70.00 Ry     beta= 0.70
     Davidson diagonalization with overlap
     ethr =  2.12E-07,  avg # of iterations =  2.0

     negative rho (up, down):  1.353E-03 8.780E-02

     total cpu time spent up to now is     5119.7 secs

     total energy              =    -951.84290739 Ry
     Harris-Foulkes estimate   =    -951.84312422 Ry
     estimated scf accuracy    <       0.00336864 Ry

     total magnetization       =    -0.00 Bohr mag/cell
     absolute magnetization    =     0.08 Bohr mag/cell

     iteration # 54     ecut=    70.00 Ry     beta= 0.70
     Davidson diagonalization with overlap
     ethr =  2.12E-07,  avg # of iterations =  2.5

     negative rho (up, down):  1.220E-03 4.754E-02

     total cpu time spent up to now is     5210.3 secs

     total energy              =    -951.84308539 Ry
     Harris-Foulkes estimate   =    -951.84300513 Ry
     estimated scf accuracy    <       0.00070141 Ry

     total magnetization       =    -0.00 Bohr mag/cell
     absolute magnetization    =     0.03 Bohr mag/cell

     iteration # 55     ecut=    70.00 Ry     beta= 0.70
     Davidson diagonalization with overlap
     ethr =  2.12E-07,  avg # of iterations =  2.0

     negative rho (up, down):  1.329E-03 7.139E-02

     total cpu time spent up to now is     5300.8 secs

     total energy              =    -951.84307852 Ry
     Harris-Foulkes estimate   =    -951.84315724 Ry
     estimated scf accuracy    <       0.00358160 Ry

     total magnetization       =     0.00 Bohr mag/cell
     absolute magnetization    =     0.08 Bohr mag/cell

     iteration # 56     ecut=    70.00 Ry     beta= 0.70
     Davidson diagonalization with overlap
     ethr =  2.12E-07,  avg # of iterations =  2.0

     negative rho (up, down):  1.233E-03 1.039E-01

     total cpu time spent up to now is     5390.6 secs

     total energy              =    -951.84310857 Ry
     Harris-Foulkes estimate   =    -951.84313399 Ry
     estimated scf accuracy    <       0.00545746 Ry

     total magnetization       =     0.00 Bohr mag/cell
     absolute magnetization    =     0.11 Bohr mag/cell

     iteration # 57     ecut=    70.00 Ry     beta= 0.70
     Davidson diagonalization with overlap
     ethr =  2.12E-07,  avg # of iterations =  2.0

     negative rho (up, down):  1.239E-03 1.272E-01

     total cpu time spent up to now is     5475.4 secs

     total energy              =    -951.84271327 Ry
     Harris-Foulkes estimate   =    -951.84311523 Ry
     estimated scf accuracy    <       0.00754568 Ry

     total magnetization       =     0.00 Bohr mag/cell
     absolute magnetization    =     0.13 Bohr mag/cell

     iteration # 58     ecut=    70.00 Ry     beta= 0.70
     Davidson diagonalization with overlap
     ethr =  2.12E-07,  avg # of iterations =  2.0

     negative rho (up, down):  1.237E-03 7.806E-02
