
     Program PWSCF v.6.4.1 starts on 25Dec2022 at  9:23:19 

     This program is part of the open-source Quantum ESPRESSO suite
     for quantum simulation of materials; please cite
         "P. Giannozzi et al., J. Phys.:Condens. Matter 21 395502 (2009);
         "P. Giannozzi et al., J. Phys.:Condens. Matter 29 465901 (2017);
          URL http://www.quantum-espresso.org", 
     in publications or presentations arising from this work. More details at
     http://www.quantum-espresso.org/quote

     Parallel version (MPI), running on     6 processors

     MPI processes distributed on     1 nodes
     R & G space division:  proc/nbgrp/npool/nimage =       6
     Reading input from distance-3.0.in

     Current dimensions of program PWSCF are:
     Max number of different atomic species (ntypx) = 10
     Max number of k-points (npk) =  40000
     Max angular momentum in pseudopotentials (lmaxx) =  3

     IMPORTANT: XC functional enforced from input :
     Exchange-correlation      = RVV10 ( 1  4 13  4 3 0)
     Any further DFT definition will be discarded
     Please, verify this is what you really want

               file H.pbe-rrkjus.UPF: wavefunction(s)  1S renormalized

     Subspace diagonalization in iterative solution of the eigenvalue problem:
     a serial algorithm will be used


     Parallelization info
     --------------------
     sticks:   dense  smooth     PW     G-vecs:    dense   smooth      PW
     Min        3051    1746    432               270999   117096   14629
     Max        3053    1747    437               271001   117099   14630
     Sum       18313   10477   2611              1626001   702581   87777



     bravais-lattice index     =            4
     lattice parameter (alat)  =      23.2937  a.u.
     unit-cell volume          =    8879.8548 (a.u.)^3
     number of atoms/cell      =           52
     number of atomic types    =            3
     number of electrons       =       216.00
     number of Kohn-Sham states=          130
     kinetic-energy cutoff     =      70.0000  Ry
     charge density cutoff     =     490.0000  Ry
     convergence threshold     =      1.0E-06
     mixing beta               =       0.7000
     number of iterations used =            8  plain     mixing
     Exchange-correlation      = RVV10 ( 1  4 13  4 3 0)

     celldm(1)=  23.293684  celldm(2)=   0.000000  celldm(3)=   0.811261
     celldm(4)=   0.000000  celldm(5)=   0.000000  celldm(6)=   0.000000

     crystal axes: (cart. coord. in units of alat)
               a(1) = (   1.000000   0.000000   0.000000 )  
               a(2) = (  -0.500000   0.866025   0.000000 )  
               a(3) = (   0.000000   0.000000   0.811261 )  

     reciprocal axes: (cart. coord. in units 2 pi/alat)
               b(1) = (  1.000000  0.577350 -0.000000 )  
               b(2) = (  0.000000  1.154701  0.000000 )  
               b(3) = (  0.000000 -0.000000  1.232649 )  


     PseudoPot. # 1 for H  read from file:
     /home/cristian/Escritorio/Proyecto_Grafeno/pseudopotenciales/H.pbe-rrkjus.UPF
     MD5 check sum: 7cc9d459525c9a0585f487a71c3c9563
     Pseudo is Ultrasoft, Zval =  1.0
     Generated by new atomic code, or converted to UPF format
     Using radial grid of 1061 points,  2 beta functions with: 
                l(1) =   0
                l(2) =   0
     Q(r) pseudized with 0 coefficients 


     PseudoPot. # 2 for C  read from file:
     /home/cristian/Escritorio/Proyecto_Grafeno/pseudopotenciales/C.pbe-n-rrkjus_psl.1.0.0.UPF
     MD5 check sum: 1fdd950c42eb37d8afe3dd2f8d12311e
     Pseudo is Ultrasoft + core correction, Zval =  4.0
     Generated using "atomic" code by A. Dal Corso v.6.3MaX
     Using radial grid of 1073 points,  4 beta functions with: 
                l(1) =   0
                l(2) =   0
                l(3) =   1
                l(4) =   1
     Q(r) pseudized with 0 coefficients 


     PseudoPot. # 3 for Ni read from file:
     /home/cristian/Escritorio/Proyecto_Grafeno/pseudopotenciales/Ni.pbe-spn-rrkjus_psl.1.0.0.UPF
     MD5 check sum: 8b3fc9aac6dafe35f580d41bb18c3945
     Pseudo is Ultrasoft + core correction, Zval = 18.0
     Generated using "atomic" code by A. Dal Corso v.6.3
     Using radial grid of 1195 points,  6 beta functions with: 
                l(1) =   0
                l(2) =   0
                l(3) =   1
                l(4) =   1
                l(5) =   2
                l(6) =   2
     Q(r) pseudized with 0 coefficients 


     vdW kernel table read from file rVV10_kernel_table
     MD5 check sum: b8e2538accc0c0b3206b45ba4daaba6c

     atomic species   valence    mass     pseudopotential
        H              1.00     1.00794     H ( 1.00)
        C              4.00    12.01070     C ( 1.00)
        Ni            18.00    58.69340     Ni( 1.00)

     Starting magnetic structure 
     atomic species   magnetization
        H            0.500
        C            0.300
        Ni           0.800

     No symmetry found


                                    s                        frac. trans.

      isym =  1     identity                                     

 cryst.   s( 1) = (     1          0          0      )
                  (     0          1          0      )
                  (     0          0          1      )

 cart.    s( 1) = (  1.0000000  0.0000000  0.0000000 )
                  (  0.0000000  1.0000000  0.0000000 )
                  (  0.0000000  0.0000000  1.0000000 )


     point group C_1 (1)    
     there are  1 classes
     the character table:

       E    
A      1.00

     the symmetry operations in each class and the name of the first element:

     E        1
          identity                                               

   Cartesian axes

     site n.     atom                  positions (alat units)
         1           H   tau(   1) = (   0.2666667   0.4618802   0.2433783  )
         2           H   tau(   2) = (   0.2666667   0.4618802   0.3043910  )
         3           C   tau(   3) = (   0.0000000   0.0000000   0.0000000  )
         4           C   tau(   4) = (   0.0000000   0.1154701   0.0000000  )
         5           C   tau(   5) = (  -0.1000000   0.1732051   0.0000000  )
         6           C   tau(   6) = (  -0.1000000   0.2886751   0.0000000  )
         7           C   tau(   7) = (  -0.2000000   0.3464102   0.0000000  )
         8           C   tau(   8) = (  -0.2000000   0.4618802   0.0000000  )
         9           C   tau(   9) = (  -0.3000000   0.5196152   0.0000000  )
        10           C   tau(  10) = (  -0.3000000   0.6350853   0.0000000  )
        11           C   tau(  11) = (  -0.4000000   0.6928203   0.0000000  )
        12           C   tau(  12) = (  -0.4000000   0.8082904   0.0000000  )
        13           C   tau(  13) = (   0.2000000   0.0000000   0.0000000  )
        14           C   tau(  14) = (   0.2000000   0.1154701   0.0000000  )
        15           C   tau(  15) = (   0.1000000   0.1732051   0.0000000  )
        16           C   tau(  16) = (   0.1000000   0.2886751   0.0000000  )
        17           C   tau(  17) = (   0.0000000   0.3464102   0.0000000  )
        18           C   tau(  18) = (   0.0000000   0.4618802   0.0000000  )
        19           C   tau(  19) = (  -0.1000000   0.5196152   0.0000000  )
        20           C   tau(  20) = (  -0.1000000   0.6350853   0.0000000  )
        21           C   tau(  21) = (  -0.2000000   0.6928203   0.0000000  )
        22           C   tau(  22) = (  -0.2000000   0.8082904   0.0000000  )
        23           C   tau(  23) = (   0.4000000   0.0000000   0.0000000  )
        24           C   tau(  24) = (   0.4000000   0.1154701   0.0000000  )
        25           C   tau(  25) = (   0.3000000   0.1732051   0.0000000  )
        26           C   tau(  26) = (   0.3000000   0.2886751   0.0000000  )
        27           C   tau(  27) = (   0.2000000   0.3464102   0.0000000  )
        28           Ni  tau(  28) = (   0.2000000   0.4618802   0.0000000  )
        29           C   tau(  29) = (   0.1000000   0.5196152   0.0000000  )
        30           C   tau(  30) = (   0.1000000   0.6350853   0.0000000  )
        31           C   tau(  31) = (   0.0000000   0.6928203   0.0000000  )
        32           C   tau(  32) = (   0.0000000   0.8082904   0.0000000  )
        33           C   tau(  33) = (   0.6000000   0.0000000   0.0000000  )
        34           C   tau(  34) = (   0.6000000   0.1154701   0.0000000  )
        35           C   tau(  35) = (   0.5000000   0.1732051   0.0000000  )
        36           C   tau(  36) = (   0.5000000   0.2886751   0.0000000  )
        37           C   tau(  37) = (   0.4000000   0.3464102   0.0000000  )
        38           C   tau(  38) = (   0.4000000   0.4618802   0.0000000  )
        39           C   tau(  39) = (   0.3000000   0.5196152   0.0000000  )
        40           C   tau(  40) = (   0.3000000   0.6350853   0.0000000  )
        41           C   tau(  41) = (   0.2000000   0.6928203   0.0000000  )
        42           C   tau(  42) = (   0.2000000   0.8082904   0.0000000  )
        43           C   tau(  43) = (   0.8000000   0.0000000   0.0000000  )
        44           C   tau(  44) = (   0.8000000   0.1154701   0.0000000  )
        45           C   tau(  45) = (   0.7000000   0.1732051   0.0000000  )
        46           C   tau(  46) = (   0.7000000   0.2886751   0.0000000  )
        47           C   tau(  47) = (   0.6000000   0.3464102   0.0000000  )
        48           C   tau(  48) = (   0.6000000   0.4618802   0.0000000  )
        49           C   tau(  49) = (   0.5000000   0.5196152   0.0000000  )
        50           C   tau(  50) = (   0.5000000   0.6350853   0.0000000  )
        51           C   tau(  51) = (   0.4000000   0.6928203   0.0000000  )
        52           C   tau(  52) = (   0.4000000   0.8082904   0.0000000  )

   Crystallographic axes

     site n.     atom                  positions (cryst. coord.)
         1           H   tau(   1) = (  0.5333333  0.5333333  0.3000000  )
         2           H   tau(   2) = (  0.5333333  0.5333333  0.3752072  )
         3           C   tau(   3) = (  0.0000000  0.0000000  0.0000000  )
         4           C   tau(   4) = (  0.0666667  0.1333333  0.0000000  )
         5           C   tau(   5) = (  0.0000000  0.2000000  0.0000000  )
         6           C   tau(   6) = (  0.0666667  0.3333333  0.0000000  )
         7           C   tau(   7) = (  0.0000000  0.4000000  0.0000000  )
         8           C   tau(   8) = (  0.0666667  0.5333333  0.0000000  )
         9           C   tau(   9) = (  0.0000000  0.6000000  0.0000000  )
        10           C   tau(  10) = (  0.0666667  0.7333333  0.0000000  )
        11           C   tau(  11) = (  0.0000000  0.8000000  0.0000000  )
        12           C   tau(  12) = (  0.0666667  0.9333333  0.0000000  )
        13           C   tau(  13) = (  0.2000000  0.0000000  0.0000000  )
        14           C   tau(  14) = (  0.2666667  0.1333333  0.0000000  )
        15           C   tau(  15) = (  0.2000000  0.2000000  0.0000000  )
        16           C   tau(  16) = (  0.2666667  0.3333333  0.0000000  )
        17           C   tau(  17) = (  0.2000000  0.4000000  0.0000000  )
        18           C   tau(  18) = (  0.2666667  0.5333333  0.0000000  )
        19           C   tau(  19) = (  0.2000000  0.6000000  0.0000000  )
        20           C   tau(  20) = (  0.2666667  0.7333333  0.0000000  )
        21           C   tau(  21) = (  0.2000000  0.8000000  0.0000000  )
        22           C   tau(  22) = (  0.2666667  0.9333333  0.0000000  )
        23           C   tau(  23) = (  0.4000000  0.0000000  0.0000000  )
        24           C   tau(  24) = (  0.4666667  0.1333333  0.0000000  )
        25           C   tau(  25) = (  0.4000000  0.2000000  0.0000000  )
        26           C   tau(  26) = (  0.4666667  0.3333333  0.0000000  )
        27           C   tau(  27) = (  0.4000000  0.4000000  0.0000000  )
        28           Ni  tau(  28) = (  0.4666667  0.5333333  0.0000000  )
        29           C   tau(  29) = (  0.4000000  0.6000000  0.0000000  )
        30           C   tau(  30) = (  0.4666667  0.7333333  0.0000000  )
        31           C   tau(  31) = (  0.4000000  0.8000000  0.0000000  )
        32           C   tau(  32) = (  0.4666667  0.9333333  0.0000000  )
        33           C   tau(  33) = (  0.6000000  0.0000000  0.0000000  )
        34           C   tau(  34) = (  0.6666667  0.1333333  0.0000000  )
        35           C   tau(  35) = (  0.6000000  0.2000000  0.0000000  )
        36           C   tau(  36) = (  0.6666667  0.3333333  0.0000000  )
        37           C   tau(  37) = (  0.6000000  0.4000000  0.0000000  )
        38           C   tau(  38) = (  0.6666667  0.5333333  0.0000000  )
        39           C   tau(  39) = (  0.6000000  0.6000000  0.0000000  )
        40           C   tau(  40) = (  0.6666667  0.7333333  0.0000000  )
        41           C   tau(  41) = (  0.6000000  0.8000000  0.0000000  )
        42           C   tau(  42) = (  0.6666667  0.9333333  0.0000000  )
        43           C   tau(  43) = (  0.8000000  0.0000000  0.0000000  )
        44           C   tau(  44) = (  0.8666667  0.1333333  0.0000000  )
        45           C   tau(  45) = (  0.8000000  0.2000000  0.0000000  )
        46           C   tau(  46) = (  0.8666667  0.3333333  0.0000000  )
        47           C   tau(  47) = (  0.8000000  0.4000000  0.0000000  )
        48           C   tau(  48) = (  0.8666667  0.5333333  0.0000000  )
        49           C   tau(  49) = (  0.8000000  0.6000000  0.0000000  )
        50           C   tau(  50) = (  0.8666667  0.7333333  0.0000000  )
        51           C   tau(  51) = (  0.8000000  0.8000000  0.0000000  )
        52           C   tau(  52) = (  0.8666667  0.9333333  0.0000000  )

     number of k points=     1  Marzari-Vanderbilt smearing, width (Ry)=  0.0010
                       cart. coord. in units 2pi/alat
        k(    1) = (   0.0000000   0.0000000   0.0000000), wk =   1.0000000

                       cryst. coord.
        k(    1) = (   0.0000000   0.0000000   0.0000000), wk =   1.0000000

     Dense  grid:  1626001 G-vectors     FFT dimensions: ( 180, 180, 135)

     Smooth grid:   702581 G-vectors     FFT dimensions: ( 125, 125, 108)

     Dynamical RAM for                 wfc:      29.03 MB

     Dynamical RAM for     wfc (w. buffer):      87.10 MB

     Dynamical RAM for           str. fact:      12.41 MB

     Dynamical RAM for           local pot:       0.00 MB

     Dynamical RAM for          nlocal pot:      92.46 MB

     Dynamical RAM for                qrad:      19.73 MB

     Dynamical RAM for          rho,v,vnew:      58.92 MB

     Dynamical RAM for               rhoin:      19.64 MB

     Dynamical RAM for            rho*nmix:     132.32 MB

     Dynamical RAM for           G-vectors:      16.40 MB

     Dynamical RAM for          h,s,v(r/c):      12.38 MB

     Dynamical RAM for          <psi|beta>:       0.82 MB

     Dynamical RAM for                 psi:     116.14 MB

     Dynamical RAM for                hpsi:     116.14 MB

     Dynamical RAM for                spsi:     116.14 MB

     Dynamical RAM for      wfcinit/wfcrot:      93.90 MB

     Dynamical RAM for           addusdens:     975.89 MB

     Estimated static dynamical RAM per process >     489.64 MB

     Estimated max dynamical RAM per process >       1.43 GB

     Estimated total dynamical RAM >       8.59 GB
     Generating pointlists ...
     new r_m :   0.0252 (alat units)  0.5862 (a.u.) for type    1
     new r_m :   0.0476 (alat units)  1.1095 (a.u.) for type    2
     new r_m :   0.0476 (alat units)  1.1095 (a.u.) for type    3

     Check: negative core charge=   -0.000002

     Initial potential from superposition of free atoms

     starting charge  215.80530, renormalised to  216.00000

     negative rho (up, down):  1.378E-04 1.462E-02


---------------------------------------------------------------------------------
Carrying out rVV10 run using the following parameters:
Nqs =      20    Nr_points =    1024   r_max =   100.000
b_value =  6.30000    beta =  0.00901
     q_mesh =  0.00010000  0.00030000  0.00058939  0.00100810
               0.00161396  0.00249058  0.00375900  0.00559430
               0.00824984  0.01209221  0.01765183  0.02569619
               0.03733578  0.05417739  0.07854596  0.11380545
               0.16482331  0.23864234  0.34545298  0.50000000

Gradients computed in Reciprocal space

---------------------------------------------------------------------------------


     Starting wfcs are  208 randomized atomic wfcs

     total cpu time spent up to now is       72.0 secs

     Self-consistent Calculation

     iteration #  1     ecut=    70.00 Ry     beta= 0.70
     Davidson diagonalization with overlap
     ethr =  1.00E-02,  avg # of iterations =  4.5

     negative rho (up, down):  2.607E-04 1.287E-02

     total cpu time spent up to now is      190.6 secs

     total energy              =    -946.71906818 Ry
     Harris-Foulkes estimate   =    -949.72747894 Ry
     estimated scf accuracy    <      14.14121246 Ry

     total magnetization       =     6.00 Bohr mag/cell
     absolute magnetization    =     6.75 Bohr mag/cell

     iteration #  2     ecut=    70.00 Ry     beta= 0.70
     Davidson diagonalization with overlap
     ethr =  6.55E-03,  avg # of iterations =  4.0

     negative rho (up, down):  3.048E-03 1.861E-01

     total cpu time spent up to now is      298.3 secs

     total energy              =    -946.93713098 Ry
     Harris-Foulkes estimate   =    -957.19112491 Ry
     estimated scf accuracy    <      32.54658976 Ry

     total magnetization       =     4.00 Bohr mag/cell
     absolute magnetization    =     5.97 Bohr mag/cell

     iteration #  3     ecut=    70.00 Ry     beta= 0.70
     Davidson diagonalization with overlap
     ethr =  6.55E-03,  avg # of iterations =  4.0

     negative rho (up, down):  4.434E-02 4.924E-01

     total cpu time spent up to now is      405.9 secs

     total energy              =    -956.04335837 Ry
     Harris-Foulkes estimate   =    -956.43278943 Ry
     estimated scf accuracy    <     264.42919291 Ry

     total magnetization       =     2.00 Bohr mag/cell
     absolute magnetization    =    25.21 Bohr mag/cell

     iteration #  4     ecut=    70.00 Ry     beta= 0.70
     Davidson diagonalization with overlap
     ethr =  6.55E-03,  avg # of iterations =  1.0

     negative rho (up, down):  6.152E-02 5.081E-01

     total cpu time spent up to now is      489.9 secs

     total energy              =    -955.90330369 Ry
     Harris-Foulkes estimate   =    -956.07651342 Ry
     estimated scf accuracy    <     251.53776700 Ry

     total magnetization       =     0.05 Bohr mag/cell
     absolute magnetization    =    23.28 Bohr mag/cell

     iteration #  5     ecut=    70.00 Ry     beta= 0.70
     Davidson diagonalization with overlap
     ethr =  6.55E-03,  avg # of iterations =  2.0

     negative rho (up, down):  4.074E-02 5.125E-01

     total cpu time spent up to now is      576.3 secs

     total energy              =    -956.33482316 Ry
     Harris-Foulkes estimate   =    -956.54790046 Ry
     estimated scf accuracy    <     281.24474805 Ry

     total magnetization       =     2.00 Bohr mag/cell
     absolute magnetization    =    26.21 Bohr mag/cell

     iteration #  6     ecut=    70.00 Ry     beta= 0.70
     Davidson diagonalization with overlap
     ethr =  6.55E-03,  avg # of iterations =  1.5

     negative rho (up, down):  2.770E-02 4.791E-01

     total cpu time spent up to now is      660.6 secs

     total energy              =    -955.37455310 Ry
     Harris-Foulkes estimate   =    -956.44373752 Ry
     estimated scf accuracy    <     272.33493194 Ry

     total magnetization       =     2.00 Bohr mag/cell
     absolute magnetization    =    25.57 Bohr mag/cell

     iteration #  7     ecut=    70.00 Ry     beta= 0.70
     Davidson diagonalization with overlap
     ethr =  6.55E-03,  avg # of iterations =  3.0

     negative rho (up, down):  1.862E-03 4.509E-01

     total cpu time spent up to now is      748.9 secs

     total energy              =    -952.75202978 Ry
     Harris-Foulkes estimate   =    -956.26663482 Ry
     estimated scf accuracy    <     217.12584550 Ry

     total magnetization       =     0.00 Bohr mag/cell
     absolute magnetization    =    22.41 Bohr mag/cell

     iteration #  8     ecut=    70.00 Ry     beta= 0.70
     Davidson diagonalization with overlap
     ethr =  6.55E-03,  avg # of iterations =  3.0

     negative rho (up, down):  6.571E-02 4.214E-01

     total cpu time spent up to now is      854.5 secs

     total energy              =    -956.32331783 Ry
     Harris-Foulkes estimate   =    -958.02037568 Ry
     estimated scf accuracy    <     331.34635226 Ry

     total magnetization       =     0.00 Bohr mag/cell
     absolute magnetization    =    28.87 Bohr mag/cell

     iteration #  9     ecut=    70.00 Ry     beta= 0.70
     Davidson diagonalization with overlap
     ethr =  6.55E-03,  avg # of iterations =  2.0

     negative rho (up, down):  9.852E-02 4.031E-01

     total cpu time spent up to now is      939.7 secs

     total energy              =    -949.85573097 Ry
     Harris-Foulkes estimate   =    -956.51729764 Ry
     estimated scf accuracy    <     236.41409767 Ry

     total magnetization       =    -0.10 Bohr mag/cell
     absolute magnetization    =    24.56 Bohr mag/cell

     iteration # 10     ecut=    70.00 Ry     beta= 0.70
     Davidson diagonalization with overlap
     ethr =  6.55E-03,  avg # of iterations =  2.5

     negative rho (up, down):  6.079E-02 3.375E-01

     total cpu time spent up to now is     1030.3 secs

     total energy              =    -950.60675917 Ry
     Harris-Foulkes estimate   =    -952.61584221 Ry
     estimated scf accuracy    <      62.36104257 Ry

     total magnetization       =    -2.00 Bohr mag/cell
     absolute magnetization    =    14.71 Bohr mag/cell

     iteration # 11     ecut=    70.00 Ry     beta= 0.70
     Davidson diagonalization with overlap
     ethr =  6.55E-03,  avg # of iterations =  3.0

     negative rho (up, down):  9.793E-02 3.646E-01

     total cpu time spent up to now is     1130.5 secs

     total energy              =    -950.94005612 Ry
     Harris-Foulkes estimate   =    -953.97581725 Ry
     estimated scf accuracy    <     133.90666823 Ry

     total magnetization       =    -0.01 Bohr mag/cell
     absolute magnetization    =    22.06 Bohr mag/cell

     iteration # 12     ecut=    70.00 Ry     beta= 0.70
     Davidson diagonalization with overlap
     ethr =  6.55E-03,  avg # of iterations =  2.0

     negative rho (up, down):  7.791E-02 4.389E-01

     total cpu time spent up to now is     1221.0 secs

     total energy              =    -950.63892718 Ry
     Harris-Foulkes estimate   =    -952.54074516 Ry
     estimated scf accuracy    <      47.83157767 Ry

     total magnetization       =    -2.00 Bohr mag/cell
     absolute magnetization    =    13.99 Bohr mag/cell

     iteration # 13     ecut=    70.00 Ry     beta= 0.70
     Davidson diagonalization with overlap
     ethr =  6.55E-03,  avg # of iterations =  2.0

     negative rho (up, down):  3.431E-02 3.709E-01

     total cpu time spent up to now is     1310.9 secs

     total energy              =    -950.70215128 Ry
     Harris-Foulkes estimate   =    -952.20082756 Ry
     estimated scf accuracy    <      24.71507265 Ry

     total magnetization       =     0.00 Bohr mag/cell
     absolute magnetization    =     8.34 Bohr mag/cell

     iteration # 14     ecut=    70.00 Ry     beta= 0.70
     Davidson diagonalization with overlap
     ethr =  6.55E-03,  avg # of iterations =  2.5

     negative rho (up, down):  1.621E-02 4.158E-01

     total cpu time spent up to now is     1407.7 secs

     total energy              =    -951.80937310 Ry
     Harris-Foulkes estimate   =    -954.19888760 Ry
     estimated scf accuracy    <      81.68299518 Ry

     total magnetization       =    -1.77 Bohr mag/cell
     absolute magnetization    =    13.92 Bohr mag/cell

     iteration # 15     ecut=    70.00 Ry     beta= 0.70
     Davidson diagonalization with overlap
     ethr =  6.55E-03,  avg # of iterations =  2.0

     negative rho (up, down):  9.335E-03 4.456E-01

     total cpu time spent up to now is     1492.8 secs

     total energy              =    -951.78952510 Ry
     Harris-Foulkes estimate   =    -952.51390113 Ry
     estimated scf accuracy    <      49.93941153 Ry

     total magnetization       =    -0.00 Bohr mag/cell
     absolute magnetization    =    11.62 Bohr mag/cell

     iteration # 16     ecut=    70.00 Ry     beta= 0.70
     Davidson diagonalization with overlap
     ethr =  6.55E-03,  avg # of iterations =  1.5

     negative rho (up, down):  3.373E-02 3.907E-01

     total cpu time spent up to now is     1577.1 secs

     total energy              =    -951.79150614 Ry
     Harris-Foulkes estimate   =    -952.08887287 Ry
     estimated scf accuracy    <      18.15552968 Ry

     total magnetization       =    -0.00 Bohr mag/cell
     absolute magnetization    =     6.95 Bohr mag/cell

     iteration # 17     ecut=    70.00 Ry     beta= 0.70
     Davidson diagonalization with overlap
     ethr =  6.55E-03,  avg # of iterations =  1.0

     negative rho (up, down):  2.796E-02 3.630E-01

     total cpu time spent up to now is     1661.4 secs

     total energy              =    -951.57692985 Ry
     Harris-Foulkes estimate   =    -951.96580495 Ry
     estimated scf accuracy    <      11.38781906 Ry

     total magnetization       =    -0.00 Bohr mag/cell
     absolute magnetization    =     5.64 Bohr mag/cell

     iteration # 18     ecut=    70.00 Ry     beta= 0.70
     Davidson diagonalization with overlap
     ethr =  5.27E-03,  avg # of iterations =  2.0

     negative rho (up, down):  3.332E-02 3.272E-01

     total cpu time spent up to now is     1748.1 secs

     total energy              =    -951.54959519 Ry
     Harris-Foulkes estimate   =    -952.19246387 Ry
     estimated scf accuracy    <      12.38954640 Ry

     total magnetization       =    -0.00 Bohr mag/cell
     absolute magnetization    =     4.97 Bohr mag/cell

     iteration # 19     ecut=    70.00 Ry     beta= 0.70
     Davidson diagonalization with overlap
     ethr =  5.27E-03,  avg # of iterations =  1.5

     negative rho (up, down):  2.750E-02 2.762E-01

     total cpu time spent up to now is     1833.8 secs

     total energy              =    -951.84506834 Ry
     Harris-Foulkes estimate   =    -951.90550784 Ry
     estimated scf accuracy    <       3.36591396 Ry

     total magnetization       =     0.00 Bohr mag/cell
     absolute magnetization    =     2.64 Bohr mag/cell

     iteration # 20     ecut=    70.00 Ry     beta= 0.70
     Davidson diagonalization with overlap
     ethr =  1.56E-03,  avg # of iterations =  2.0

     negative rho (up, down):  1.333E-02 3.063E-01

     total cpu time spent up to now is     1919.0 secs

     total energy              =    -951.87098486 Ry
     Harris-Foulkes estimate   =    -951.90609800 Ry
     estimated scf accuracy    <       1.95845817 Ry

     total magnetization       =     0.00 Bohr mag/cell
     absolute magnetization    =     2.47 Bohr mag/cell

     iteration # 21     ecut=    70.00 Ry     beta= 0.70
     Davidson diagonalization with overlap
     ethr =  9.07E-04,  avg # of iterations =  1.5

     negative rho (up, down):  5.234E-03 3.106E-01

     total cpu time spent up to now is     2003.5 secs

     total energy              =    -952.19716708 Ry
     Harris-Foulkes estimate   =    -951.89245768 Ry
     estimated scf accuracy    <       1.15704746 Ry

     total magnetization       =    -0.00 Bohr mag/cell
     absolute magnetization    =     2.23 Bohr mag/cell

     iteration # 22     ecut=    70.00 Ry     beta= 0.70
     Davidson diagonalization with overlap
     ethr =  5.36E-04,  avg # of iterations =  5.5

     negative rho (up, down):  1.400E-02 4.818E-01

     total cpu time spent up to now is     2125.0 secs

     total energy              =    -949.71135575 Ry
     Harris-Foulkes estimate   =    -954.28388673 Ry
     estimated scf accuracy    <     144.69203484 Ry

     total magnetization       =    -0.00 Bohr mag/cell
     absolute magnetization    =    18.21 Bohr mag/cell

     iteration # 23     ecut=    70.00 Ry     beta= 0.70
     Davidson diagonalization with overlap
     ethr =  5.36E-04,  avg # of iterations =  3.0

     negative rho (up, down):  1.222E-02 3.955E-01

     total cpu time spent up to now is     2240.4 secs

     total energy              =    -951.74595045 Ry
     Harris-Foulkes estimate   =    -951.78407142 Ry
     estimated scf accuracy    <       1.17620400 Ry

     total magnetization       =     0.00 Bohr mag/cell
     absolute magnetization    =     1.59 Bohr mag/cell

     iteration # 24     ecut=    70.00 Ry     beta= 0.70
     Davidson diagonalization with overlap
     ethr =  5.36E-04,  avg # of iterations =  2.0

     negative rho (up, down):  3.246E-03 3.336E-01

     total cpu time spent up to now is     2326.7 secs

     total energy              =    -951.83957624 Ry
     Harris-Foulkes estimate   =    -951.85244813 Ry
     estimated scf accuracy    <       0.59444663 Ry

     total magnetization       =    -0.00 Bohr mag/cell
     absolute magnetization    =     1.26 Bohr mag/cell

     iteration # 25     ecut=    70.00 Ry     beta= 0.70
     Davidson diagonalization with overlap
     ethr =  2.75E-04,  avg # of iterations =  4.0

     negative rho (up, down):  1.555E-02 1.901E-01

     total cpu time spent up to now is     2417.8 secs

     total energy              =    -951.84144005 Ry
     Harris-Foulkes estimate   =    -951.90351985 Ry
     estimated scf accuracy    <       0.88218566 Ry

     total magnetization       =     0.00 Bohr mag/cell
     absolute magnetization    =     1.05 Bohr mag/cell

     iteration # 26     ecut=    70.00 Ry     beta= 0.70
     Davidson diagonalization with overlap
     ethr =  2.75E-04,  avg # of iterations =  2.0

     negative rho (up, down):  1.130E-03 2.197E-01

     total cpu time spent up to now is     2505.7 secs

     total energy              =    -951.89031379 Ry
     Harris-Foulkes estimate   =    -951.88783436 Ry
     estimated scf accuracy    <       0.21203804 Ry

     total magnetization       =    -0.00 Bohr mag/cell
     absolute magnetization    =     0.92 Bohr mag/cell

     iteration # 27     ecut=    70.00 Ry     beta= 0.70
     Davidson diagonalization with overlap
     ethr =  9.82E-05,  avg # of iterations =  2.5

     negative rho (up, down):  4.569E-03 3.051E-01

     total cpu time spent up to now is     2597.7 secs

     total energy              =    -951.85620488 Ry
     Harris-Foulkes estimate   =    -951.91741754 Ry
     estimated scf accuracy    <       1.88517188 Ry

     total magnetization       =    -0.00 Bohr mag/cell
     absolute magnetization    =     2.30 Bohr mag/cell

     iteration # 28     ecut=    70.00 Ry     beta= 0.70
     Davidson diagonalization with overlap
     ethr =  9.82E-05,  avg # of iterations =  2.0

     negative rho (up, down):  1.451E-03 2.594E-01

     total cpu time spent up to now is     2689.0 secs

     total energy              =    -951.88614869 Ry
     Harris-Foulkes estimate   =    -951.88433134 Ry
     estimated scf accuracy    <       0.18590479 Ry

     total magnetization       =    -0.00 Bohr mag/cell
     absolute magnetization    =     0.87 Bohr mag/cell

     iteration # 29     ecut=    70.00 Ry     beta= 0.70
     Davidson diagonalization with overlap
     ethr =  8.61E-05,  avg # of iterations =  1.5

     negative rho (up, down):  3.250E-03 2.363E-01

     total cpu time spent up to now is     2773.7 secs

     total energy              =    -951.88977624 Ry
     Harris-Foulkes estimate   =    -951.88968207 Ry
     estimated scf accuracy    <       0.26468013 Ry

     total magnetization       =    -0.00 Bohr mag/cell
     absolute magnetization    =     1.00 Bohr mag/cell

     iteration # 30     ecut=    70.00 Ry     beta= 0.70
     Davidson diagonalization with overlap
     ethr =  8.61E-05,  avg # of iterations =  1.0

     negative rho (up, down):  5.974E-03 2.099E-01

     total cpu time spent up to now is     2858.0 secs

     total energy              =    -951.91431515 Ry
     Harris-Foulkes estimate   =    -951.89075453 Ry
     estimated scf accuracy    <       0.28976284 Ry

     total magnetization       =     0.00 Bohr mag/cell
     absolute magnetization    =     0.99 Bohr mag/cell

     iteration # 31     ecut=    70.00 Ry     beta= 0.70
     Davidson diagonalization with overlap
     ethr =  8.61E-05,  avg # of iterations =  2.0

     negative rho (up, down):  2.590E-02 2.878E-01

     total cpu time spent up to now is     2951.2 secs

     total energy              =    -951.84601940 Ry
     Harris-Foulkes estimate   =    -951.96831270 Ry
     estimated scf accuracy    <       4.76395608 Ry

     total magnetization       =    -0.00 Bohr mag/cell
     absolute magnetization    =     3.26 Bohr mag/cell

     iteration # 32     ecut=    70.00 Ry     beta= 0.70
     Davidson diagonalization with overlap
     ethr =  8.61E-05,  avg # of iterations =  3.0

     negative rho (up, down):  1.294E-02 3.677E-01

     total cpu time spent up to now is     3052.2 secs

     total energy              =    -951.79565917 Ry
     Harris-Foulkes estimate   =    -952.01511151 Ry
     estimated scf accuracy    <       9.26266192 Ry

     total magnetization       =    -0.00 Bohr mag/cell
     absolute magnetization    =     4.72 Bohr mag/cell

     iteration # 33     ecut=    70.00 Ry     beta= 0.70
     Davidson diagonalization with overlap
     ethr =  8.61E-05,  avg # of iterations =  3.0

     negative rho (up, down):  1.420E-02 2.925E-01

     total cpu time spent up to now is     3149.4 secs

     total energy              =    -951.84808198 Ry
     Harris-Foulkes estimate   =    -951.88688248 Ry
     estimated scf accuracy    <       1.13422979 Ry

     total magnetization       =     0.00 Bohr mag/cell
     absolute magnetization    =     1.60 Bohr mag/cell

     iteration # 34     ecut=    70.00 Ry     beta= 0.70
     Davidson diagonalization with overlap
     ethr =  8.61E-05,  avg # of iterations =  2.0

     negative rho (up, down):  5.118E-03 2.254E-01

     total cpu time spent up to now is     3239.8 secs

     total energy              =    -951.88190343 Ry
     Harris-Foulkes estimate   =    -951.87394900 Ry
     estimated scf accuracy    <       0.05259157 Ry

     total magnetization       =    -0.00 Bohr mag/cell
     absolute magnetization    =     0.49 Bohr mag/cell

     iteration # 35     ecut=    70.00 Ry     beta= 0.70
     Davidson diagonalization with overlap
     ethr =  2.43E-05,  avg # of iterations =  3.5

     negative rho (up, down):  1.345E-03 1.704E-01

     total cpu time spent up to now is     3327.9 secs

     total energy              =    -951.88713177 Ry
     Harris-Foulkes estimate   =    -951.88408260 Ry
     estimated scf accuracy    <       0.00193708 Ry

     total magnetization       =    -0.08 Bohr mag/cell
     absolute magnetization    =     0.27 Bohr mag/cell

     iteration # 36     ecut=    70.00 Ry     beta= 0.70
     Davidson diagonalization with overlap
     ethr =  8.97E-07,  avg # of iterations =  8.0

     negative rho (up, down):  1.399E-03 1.190E-01

     total cpu time spent up to now is     3440.7 secs

     total energy              =    -951.88772373 Ry
     Harris-Foulkes estimate   =    -951.88768785 Ry
     estimated scf accuracy    <       0.00685080 Ry

     total magnetization       =     0.00 Bohr mag/cell
     absolute magnetization    =     0.24 Bohr mag/cell

     iteration # 37     ecut=    70.00 Ry     beta= 0.70
     Davidson diagonalization with overlap
     ethr =  8.97E-07,  avg # of iterations =  6.0

     negative rho (up, down):  1.244E-03 1.170E-01

     total cpu time spent up to now is     3535.6 secs

     total energy              =    -951.88811081 Ry
     Harris-Foulkes estimate   =    -951.88810703 Ry
     estimated scf accuracy    <       0.01136358 Ry

     total magnetization       =     0.00 Bohr mag/cell
     absolute magnetization    =     0.28 Bohr mag/cell

     iteration # 38     ecut=    70.00 Ry     beta= 0.70
     Davidson diagonalization with overlap
     ethr =  8.97E-07,  avg # of iterations =  3.0

     negative rho (up, down):  1.416E-03 1.138E-01

     total cpu time spent up to now is     3624.9 secs

     total energy              =    -951.88815148 Ry
     Harris-Foulkes estimate   =    -951.88819018 Ry
     estimated scf accuracy    <       0.00940066 Ry

     total magnetization       =    -0.00 Bohr mag/cell
     absolute magnetization    =     0.26 Bohr mag/cell

     iteration # 39     ecut=    70.00 Ry     beta= 0.70
     Davidson diagonalization with overlap
     ethr =  8.97E-07,  avg # of iterations =  4.0

     negative rho (up, down):  1.591E-03 1.182E-01

     total cpu time spent up to now is     3717.2 secs

     total energy              =    -951.88775967 Ry
     Harris-Foulkes estimate   =    -951.88839183 Ry
     estimated scf accuracy    <       0.01512349 Ry

     total magnetization       =    -0.00 Bohr mag/cell
     absolute magnetization    =     0.27 Bohr mag/cell

     iteration # 40     ecut=    70.00 Ry     beta= 0.70
     Davidson diagonalization with overlap
     ethr =  8.97E-07,  avg # of iterations =  2.0

     negative rho (up, down):  1.324E-03 8.629E-02

     total cpu time spent up to now is     3806.7 secs

     total energy              =    -951.88810723 Ry
     Harris-Foulkes estimate   =    -951.88798902 Ry
     estimated scf accuracy    <       0.00277203 Ry

     total magnetization       =    -0.00 Bohr mag/cell
     absolute magnetization    =     0.17 Bohr mag/cell

     iteration # 41     ecut=    70.00 Ry     beta= 0.70
     Davidson diagonalization with overlap
     ethr =  8.97E-07,  avg # of iterations =  2.5

     negative rho (up, down):  1.425E-03 1.222E-01

     total cpu time spent up to now is     3899.3 secs

     total energy              =    -951.88820300 Ry
     Harris-Foulkes estimate   =    -951.88849679 Ry
     estimated scf accuracy    <       0.01686383 Ry

     total magnetization       =    -0.00 Bohr mag/cell
     absolute magnetization    =     0.28 Bohr mag/cell

     iteration # 42     ecut=    70.00 Ry     beta= 0.70
     Davidson diagonalization with overlap
     ethr =  8.97E-07,  avg # of iterations =  3.5

     negative rho (up, down):  1.303E-03 1.344E-01

     total cpu time spent up to now is     3987.9 secs

     total energy              =    -951.88820753 Ry
     Harris-Foulkes estimate   =    -951.88828136 Ry
     estimated scf accuracy    <       0.01319006 Ry

     total magnetization       =     0.00 Bohr mag/cell
     absolute magnetization    =     0.25 Bohr mag/cell

     iteration # 43     ecut=    70.00 Ry     beta= 0.70
     Davidson diagonalization with overlap
     ethr =  8.97E-07,  avg # of iterations =  1.5

     negative rho (up, down):  1.192E-03 1.446E-01

     total cpu time spent up to now is     4073.4 secs

     total energy              =    -951.88805079 Ry
     Harris-Foulkes estimate   =    -951.88825092 Ry
     estimated scf accuracy    <       0.01515435 Ry

     total magnetization       =     0.00 Bohr mag/cell
     absolute magnetization    =     0.29 Bohr mag/cell

     iteration # 44     ecut=    70.00 Ry     beta= 0.70
     Davidson diagonalization with overlap
     ethr =  8.97E-07,  avg # of iterations =  2.0

     negative rho (up, down):  1.306E-03 1.284E-01

     total cpu time spent up to now is     4159.8 secs

     total energy              =    -951.88867403 Ry
     Harris-Foulkes estimate   =    -951.88812592 Ry
     estimated scf accuracy    <       0.00954518 Ry

     total magnetization       =     0.00 Bohr mag/cell
     absolute magnetization    =     0.24 Bohr mag/cell

     iteration # 45     ecut=    70.00 Ry     beta= 0.70
     Davidson diagonalization with overlap
     ethr =  8.97E-07,  avg # of iterations =  2.5

     negative rho (up, down):  3.121E-03 1.888E-01

     total cpu time spent up to now is     4258.7 secs

     total energy              =    -951.88940713 Ry
     Harris-Foulkes estimate   =    -951.89000422 Ry
     estimated scf accuracy    <       0.10509532 Ry

     total magnetization       =    -0.00 Bohr mag/cell
     absolute magnetization    =     0.51 Bohr mag/cell

     iteration # 46     ecut=    70.00 Ry     beta= 0.70
     Davidson diagonalization with overlap
     ethr =  8.97E-07,  avg # of iterations =  5.5

     negative rho (up, down):  4.329E-03 2.099E-01

     total cpu time spent up to now is     4353.2 secs

     total energy              =    -951.88836997 Ry
     Harris-Foulkes estimate   =    -951.88965210 Ry
     estimated scf accuracy    <       0.15258126 Ry

     total magnetization       =     0.00 Bohr mag/cell
     absolute magnetization    =     0.60 Bohr mag/cell

     iteration # 47     ecut=    70.00 Ry     beta= 0.70
     Davidson diagonalization with overlap
     ethr =  8.97E-07,  avg # of iterations =  4.0

     negative rho (up, down):  4.420E-03 2.063E-01

     total cpu time spent up to now is     4447.0 secs

     total energy              =    -951.88749732 Ry
     Harris-Foulkes estimate   =    -951.88869473 Ry
     estimated scf accuracy    <       0.12881826 Ry

     total magnetization       =    -0.00 Bohr mag/cell
     absolute magnetization    =     0.55 Bohr mag/cell

     iteration # 48     ecut=    70.00 Ry     beta= 0.70
     Davidson diagonalization with overlap
     ethr =  8.97E-07,  avg # of iterations =  2.0

     negative rho (up, down):  4.348E-03 1.833E-01

     total cpu time spent up to now is     4538.6 secs

     total energy              =    -951.88827299 Ry
     Harris-Foulkes estimate   =    -951.88793314 Ry
     estimated scf accuracy    <       0.09289876 Ry

     total magnetization       =    -0.00 Bohr mag/cell
     absolute magnetization    =     0.45 Bohr mag/cell

     iteration # 49     ecut=    70.00 Ry     beta= 0.70
     Davidson diagonalization with overlap
     ethr =  8.97E-07,  avg # of iterations =  4.0

     negative rho (up, down):  3.753E-03 2.002E-01

     total cpu time spent up to now is     4632.4 secs

     total energy              =    -951.88856407 Ry
     Harris-Foulkes estimate   =    -951.88863335 Ry
     estimated scf accuracy    <       0.11095179 Ry

     total magnetization       =    -0.00 Bohr mag/cell
     absolute magnetization    =     0.52 Bohr mag/cell

     iteration # 50     ecut=    70.00 Ry     beta= 0.70
     Davidson diagonalization with overlap
     ethr =  8.97E-07,  avg # of iterations =  2.5

     negative rho (up, down):  3.501E-03 2.065E-01

     total cpu time spent up to now is     4718.8 secs

     total energy              =    -951.88671193 Ry
     Harris-Foulkes estimate   =    -951.88857732 Ry
     estimated scf accuracy    <       0.10325749 Ry

     total magnetization       =    -0.00 Bohr mag/cell
     absolute magnetization    =     0.50 Bohr mag/cell

     iteration # 51     ecut=    70.00 Ry     beta= 0.70
     Davidson diagonalization with overlap
     ethr =  8.97E-07,  avg # of iterations =  3.0

     negative rho (up, down):  2.993E-03 1.880E-01

     total cpu time spent up to now is     4815.4 secs

     total energy              =    -951.88579933 Ry
     Harris-Foulkes estimate   =    -951.88743374 Ry
     estimated scf accuracy    <       0.05510365 Ry

     total magnetization       =    -0.00 Bohr mag/cell
     absolute magnetization    =     0.37 Bohr mag/cell

     iteration # 52     ecut=    70.00 Ry     beta= 0.70
     Davidson diagonalization with overlap
     ethr =  8.97E-07,  avg # of iterations =  3.0

     negative rho (up, down):  1.147E-03 1.185E-01

     total cpu time spent up to now is     4911.9 secs

     total energy              =    -951.88838855 Ry
     Harris-Foulkes estimate   =    -951.88712646 Ry
     estimated scf accuracy    <       0.00762015 Ry

     total magnetization       =     0.00 Bohr mag/cell
     absolute magnetization    =     0.18 Bohr mag/cell

     iteration # 53     ecut=    70.00 Ry     beta= 0.70
     Davidson diagonalization with overlap
     ethr =  8.97E-07,  avg # of iterations =  6.0

     negative rho (up, down):  1.358E-03 1.456E-01

     total cpu time spent up to now is     5003.2 secs

     total energy              =    -951.88858210 Ry
     Harris-Foulkes estimate   =    -951.88845247 Ry
     estimated scf accuracy    <       0.01735155 Ry

     total magnetization       =     0.00 Bohr mag/cell
     absolute magnetization    =     0.24 Bohr mag/cell

     iteration # 54     ecut=    70.00 Ry     beta= 0.70
     Davidson diagonalization with overlap
     ethr =  8.97E-07,  avg # of iterations =  4.5

     negative rho (up, down):  2.525E-03 1.690E-01

     total cpu time spent up to now is     5100.0 secs

     total energy              =    -951.88649759 Ry
     Harris-Foulkes estimate   =    -951.88895764 Ry
     estimated scf accuracy    <       0.05246324 Ry

     total magnetization       =    -0.00 Bohr mag/cell
     absolute magnetization    =     0.33 Bohr mag/cell

     iteration # 55     ecut=    70.00 Ry     beta= 0.70
     Davidson diagonalization with overlap
     ethr =  8.97E-07,  avg # of iterations =  5.0

     negative rho (up, down):  1.648E-03 9.995E-02

     total cpu time spent up to now is     5200.5 secs

     total energy              =    -951.88803503 Ry
     Harris-Foulkes estimate   =    -951.88758669 Ry
     estimated scf accuracy    <       0.00589808 Ry

     total magnetization       =     0.00 Bohr mag/cell
     absolute magnetization    =     0.11 Bohr mag/cell

     iteration # 56     ecut=    70.00 Ry     beta= 0.70
     Davidson diagonalization with overlap
     ethr =  8.97E-07,  avg # of iterations =  4.0

     negative rho (up, down):  1.909E-03 1.692E-01

     total cpu time spent up to now is     5304.5 secs

     total energy              =    -951.88894012 Ry
     Harris-Foulkes estimate   =    -951.88929247 Ry
     estimated scf accuracy    <       0.05949526 Ry

     total magnetization       =    -0.00 Bohr mag/cell
     absolute magnetization    =     0.36 Bohr mag/cell

     iteration # 57     ecut=    70.00 Ry     beta= 0.70
     Davidson diagonalization with overlap
     ethr =  8.97E-07,  avg # of iterations =  7.5

     negative rho (up, down):  2.396E-03 1.977E-01

     total cpu time spent up to now is     5396.4 secs

     total energy              =    -951.88748771 Ry
     Harris-Foulkes estimate   =    -951.88900124 Ry
     estimated scf accuracy    <       0.07280981 Ry

     total magnetization       =     0.00 Bohr mag/cell
     absolute magnetization    =     0.41 Bohr mag/cell

     iteration # 58     ecut=    70.00 Ry     beta= 0.70
     Davidson diagonalization with overlap
     ethr =  8.97E-07,  avg # of iterations =  3.5

     negative rho (up, down):  3.866E-03 1.585E-01

     total cpu time spent up to now is     5499.1 secs

     total energy              =    -951.88689482 Ry
     Harris-Foulkes estimate   =    -951.88834550 Ry
     estimated scf accuracy    <       0.06155391 Ry

     total magnetization       =     0.00 Bohr mag/cell
     absolute magnetization    =     0.31 Bohr mag/cell

     iteration # 59     ecut=    70.00 Ry     beta= 0.70
     Davidson diagonalization with overlap
     ethr =  8.97E-07,  avg # of iterations =  6.5

     negative rho (up, down):  2.043E-03 1.703E-01

     total cpu time spent up to now is     5601.6 secs

     total energy              =    -951.88896124 Ry
     Harris-Foulkes estimate   =    -951.88797211 Ry
     estimated scf accuracy    <       0.03775813 Ry

     total magnetization       =     0.00 Bohr mag/cell
     absolute magnetization    =     0.29 Bohr mag/cell

     iteration # 60     ecut=    70.00 Ry     beta= 0.70
     Davidson diagonalization with overlap
     ethr =  8.97E-07,  avg # of iterations =  6.5

     negative rho (up, down):  3.184E-03 2.057E-01

     total cpu time spent up to now is     5702.3 secs

     total energy              =    -951.88731643 Ry
     Harris-Foulkes estimate   =    -951.88957909 Ry
     estimated scf accuracy    <       0.11642857 Ry

     total magnetization       =    -0.00 Bohr mag/cell
     absolute magnetization    =     0.50 Bohr mag/cell

     iteration # 61     ecut=    70.00 Ry     beta= 0.70
     Davidson diagonalization with overlap
     ethr =  8.97E-07,  avg # of iterations =  4.5

     negative rho (up, down):  2.705E-03 1.966E-01

     total cpu time spent up to now is     5800.3 secs

     total energy              =    -951.88571968 Ry
     Harris-Foulkes estimate   =    -951.88781674 Ry
     estimated scf accuracy    <       0.05563801 Ry

     total magnetization       =     0.00 Bohr mag/cell
     absolute magnetization    =     0.33 Bohr mag/cell

     iteration # 62     ecut=    70.00 Ry     beta= 0.70
     Davidson diagonalization with overlap
     ethr =  8.97E-07,  avg # of iterations =  3.5

     negative rho (up, down):  1.878E-03 1.987E-01

     total cpu time spent up to now is     5904.3 secs

     total energy              =    -951.88957341 Ry
     Harris-Foulkes estimate   =    -951.88942921 Ry
     estimated scf accuracy    <       0.11743983 Ry

     total magnetization       =     0.00 Bohr mag/cell
     absolute magnetization    =     0.49 Bohr mag/cell

     iteration # 63     ecut=    70.00 Ry     beta= 0.70
     Davidson diagonalization with overlap
     ethr =  8.97E-07,  avg # of iterations =  8.0

     negative rho (up, down):  2.976E-03 2.172E-01

     total cpu time spent up to now is     5996.9 secs

     total energy              =    -951.88568947 Ry
     Harris-Foulkes estimate   =    -951.88961064 Ry
     estimated scf accuracy    <       0.12956514 Ry

     total magnetization       =    -0.00 Bohr mag/cell
     absolute magnetization    =     0.52 Bohr mag/cell

     iteration # 64     ecut=    70.00 Ry     beta= 0.70
     Davidson diagonalization with overlap
     ethr =  8.97E-07,  avg # of iterations =  3.0

     negative rho (up, down):  2.026E-03 1.761E-01

     total cpu time spent up to now is     6096.6 secs

     total energy              =    -951.88656326 Ry
     Harris-Foulkes estimate   =    -951.88679283 Ry
     estimated scf accuracy    <       0.01796082 Ry

     total magnetization       =     0.00 Bohr mag/cell
     absolute magnetization    =     0.19 Bohr mag/cell

     iteration # 65     ecut=    70.00 Ry     beta= 0.70
     Davidson diagonalization with overlap
     ethr =  8.97E-07,  avg # of iterations =  6.5

     negative rho (up, down):  1.362E-03 2.611E-02

     total cpu time spent up to now is     6205.7 secs

     total energy              =    -951.88786863 Ry
     Harris-Foulkes estimate   =    -951.88781212 Ry
     estimated scf accuracy    <       0.00901856 Ry

     total magnetization       =    -0.00 Bohr mag/cell
     absolute magnetization    =     0.12 Bohr mag/cell

     iteration # 66     ecut=    70.00 Ry     beta= 0.70
     Davidson diagonalization with overlap
     ethr =  8.97E-07,  avg # of iterations =  5.0

     negative rho (up, down):  1.515E-03 1.051E-01

     total cpu time spent up to now is     6313.8 secs

     total energy              =    -951.88805693 Ry
     Harris-Foulkes estimate   =    -951.88887641 Ry
     estimated scf accuracy    <       0.01767266 Ry

     total magnetization       =    -0.00 Bohr mag/cell
     absolute magnetization    =     0.18 Bohr mag/cell

     iteration # 67     ecut=    70.00 Ry     beta= 0.70
     Davidson diagonalization with overlap
     ethr =  8.97E-07,  avg # of iterations =  3.5

     negative rho (up, down):  1.667E-03 1.698E-01

     total cpu time spent up to now is     6414.2 secs

     total energy              =    -951.88810201 Ry
     Harris-Foulkes estimate   =    -951.88876740 Ry
     estimated scf accuracy    <       0.03559126 Ry

     total magnetization       =    -0.00 Bohr mag/cell
     absolute magnetization    =     0.29 Bohr mag/cell

     iteration # 68     ecut=    70.00 Ry     beta= 0.70
     Davidson diagonalization with overlap
     ethr =  8.97E-07,  avg # of iterations =  4.5

     negative rho (up, down):  2.511E-03 1.552E-01

     total cpu time spent up to now is     6507.1 secs

     total energy              =    -951.88739361 Ry
     Harris-Foulkes estimate   =    -951.88828765 Ry
     estimated scf accuracy    <       0.03009479 Ry

     total magnetization       =    -0.00 Bohr mag/cell
     absolute magnetization    =     0.23 Bohr mag/cell

     iteration # 69     ecut=    70.00 Ry     beta= 0.70
     Davidson diagonalization with overlap
     ethr =  8.97E-07,  avg # of iterations =  4.0

     negative rho (up, down):  1.195E-03 1.388E-01

     total cpu time spent up to now is     6598.6 secs

     total energy              =    -951.88807532 Ry
     Harris-Foulkes estimate   =    -951.88785858 Ry
     estimated scf accuracy    <       0.00796009 Ry

     total magnetization       =     0.00 Bohr mag/cell
     absolute magnetization    =     0.13 Bohr mag/cell

     iteration # 70     ecut=    70.00 Ry     beta= 0.70
     Davidson diagonalization with overlap
     ethr =  8.97E-07,  avg # of iterations =  4.5

     negative rho (up, down):  1.412E-03 1.319E-01

     total cpu time spent up to now is     6691.9 secs

     total energy              =    -951.88822120 Ry
     Harris-Foulkes estimate   =    -951.88829017 Ry
     estimated scf accuracy    <       0.01336926 Ry

     total magnetization       =     0.00 Bohr mag/cell
     absolute magnetization    =     0.17 Bohr mag/cell

     iteration # 71     ecut=    70.00 Ry     beta= 0.70
     Davidson diagonalization with overlap
     ethr =  8.97E-07,  avg # of iterations =  3.0

     negative rho (up, down):  1.444E-03 1.329E-01

     total cpu time spent up to now is     6778.5 secs

     total energy              =    -951.88800382 Ry
     Harris-Foulkes estimate   =    -951.88822539 Ry
     estimated scf accuracy    <       0.01175855 Ry

     total magnetization       =     0.00 Bohr mag/cell
     absolute magnetization    =     0.16 Bohr mag/cell

     iteration # 72     ecut=    70.00 Ry     beta= 0.70
     Davidson diagonalization with overlap
     ethr =  8.97E-07,  avg # of iterations =  2.0

     negative rho (up, down):  1.291E-03 1.112E-01

     total cpu time spent up to now is     6867.2 secs

     total energy              =    -951.88842184 Ry
     Harris-Foulkes estimate   =    -951.88819392 Ry
     estimated scf accuracy    <       0.00787965 Ry

     total magnetization       =    -0.00 Bohr mag/cell
     absolute magnetization    =     0.13 Bohr mag/cell

     iteration # 73     ecut=    70.00 Ry     beta= 0.70
     Davidson diagonalization with overlap
     ethr =  8.97E-07,  avg # of iterations =  2.0

     negative rho (up, down):  1.122E-03 1.575E-01

     total cpu time spent up to now is     6955.2 secs

     total energy              =    -951.88820047 Ry
     Harris-Foulkes estimate   =    -951.88854255 Ry
     estimated scf accuracy    <       0.01926579 Ry

     total magnetization       =    -0.00 Bohr mag/cell
     absolute magnetization    =     0.22 Bohr mag/cell

     iteration # 74     ecut=    70.00 Ry     beta= 0.70
     Davidson diagonalization with overlap
     ethr =  8.97E-07,  avg # of iterations =  2.0

     negative rho (up, down):  1.243E-03 1.523E-01

     total cpu time spent up to now is     7045.0 secs

     total energy              =    -951.88753980 Ry
     Harris-Foulkes estimate   =    -951.88837366 Ry
     estimated scf accuracy    <       0.01332005 Ry

     total magnetization       =     0.00 Bohr mag/cell
     absolute magnetization    =     0.17 Bohr mag/cell

     iteration # 75     ecut=    70.00 Ry     beta= 0.70
     Davidson diagonalization with overlap
     ethr =  8.97E-07,  avg # of iterations =  3.0

     negative rho (up, down):  1.359E-03 9.463E-02

     total cpu time spent up to now is     7140.9 secs

     total energy              =    -951.88803721 Ry
     Harris-Foulkes estimate   =    -951.88818368 Ry
     estimated scf accuracy    <       0.00978630 Ry

     total magnetization       =    -0.00 Bohr mag/cell
     absolute magnetization    =     0.14 Bohr mag/cell

     iteration # 76     ecut=    70.00 Ry     beta= 0.70
     Davidson diagonalization with overlap
     ethr =  8.97E-07,  avg # of iterations =  4.5

     negative rho (up, down):  1.160E-03 5.727E-02

     total cpu time spent up to now is     7234.3 secs

     total energy              =    -951.88827432 Ry
     Harris-Foulkes estimate   =    -951.88822929 Ry
     estimated scf accuracy    <       0.00077466 Ry

     total magnetization       =     0.00 Bohr mag/cell
     absolute magnetization    =     0.04 Bohr mag/cell

     iteration # 77     ecut=    70.00 Ry     beta= 0.70
     Davidson diagonalization with overlap
     ethr =  3.59E-07,  avg # of iterations =  2.0

     negative rho (up, down):  1.148E-03 8.622E-02

     total cpu time spent up to now is     7329.0 secs

     total energy              =    -951.88843862 Ry
     Harris-Foulkes estimate   =    -951.88849672 Ry
     estimated scf accuracy    <       0.00547614 Ry

     total magnetization       =    -0.00 Bohr mag/cell
     absolute magnetization    =     0.12 Bohr mag/cell

     iteration # 78     ecut=    70.00 Ry     beta= 0.70
     Davidson diagonalization with overlap
     ethr =  3.59E-07,  avg # of iterations =  2.5

     negative rho (up, down):  1.160E-03 1.081E-01

     total cpu time spent up to now is     7414.9 secs

     total energy              =    -951.88817231 Ry
     Harris-Foulkes estimate   =    -951.88844111 Ry
     estimated scf accuracy    <       0.00507906 Ry

     total magnetization       =    -0.00 Bohr mag/cell
     absolute magnetization    =     0.11 Bohr mag/cell

     iteration # 79     ecut=    70.00 Ry     beta= 0.70
     Davidson diagonalization with overlap
     ethr =  3.59E-07,  avg # of iterations =  2.0

     negative rho (up, down):  1.214E-03 5.482E-02

     total cpu time spent up to now is     7503.0 secs

     total energy              =    -951.88829148 Ry
     Harris-Foulkes estimate   =    -951.88829510 Ry
     estimated scf accuracy    <       0.00183874 Ry

     total magnetization       =     0.00 Bohr mag/cell
     absolute magnetization    =     0.05 Bohr mag/cell

     iteration # 80     ecut=    70.00 Ry     beta= 0.70
     Davidson diagonalization with overlap
     ethr =  3.59E-07,  avg # of iterations =  2.5

     negative rho (up, down):  1.212E-03 7.936E-02

     total cpu time spent up to now is     7596.6 secs

     total energy              =    -951.88841835 Ry
     Harris-Foulkes estimate   =    -951.88847526 Ry
     estimated scf accuracy    <       0.00544347 Ry

     total magnetization       =     0.00 Bohr mag/cell
     absolute magnetization    =     0.11 Bohr mag/cell

     iteration # 81     ecut=    70.00 Ry     beta= 0.70
     Davidson diagonalization with overlap
     ethr =  3.59E-07,  avg # of iterations =  1.5

     negative rho (up, down):  1.291E-03 1.075E-01

     total cpu time spent up to now is     7681.9 secs

     total energy              =    -951.88815488 Ry
     Harris-Foulkes estimate   =    -951.88843800 Ry
     estimated scf accuracy    <       0.00766400 Ry

     total magnetization       =     0.00 Bohr mag/cell
     absolute magnetization    =     0.13 Bohr mag/cell

     iteration # 82     ecut=    70.00 Ry     beta= 0.70
     Davidson diagonalization with overlap
     ethr =  3.59E-07,  avg # of iterations =  2.0

     negative rho (up, down):  1.182E-03 7.928E-02

     total cpu time spent up to now is     7771.5 secs

     total energy              =    -951.88833735 Ry
     Harris-Foulkes estimate   =    -951.88822171 Ry
     estimated scf accuracy    <       0.00196589 Ry

     total magnetization       =    -0.00 Bohr mag/cell
     absolute magnetization    =     0.07 Bohr mag/cell

     iteration # 83     ecut=    70.00 Ry     beta= 0.70
     Davidson diagonalization with overlap
     ethr =  3.59E-07,  avg # of iterations =  1.5

     negative rho (up, down):  1.129E-03 7.669E-02

     total cpu time spent up to now is     7857.5 secs

     total energy              =    -951.88839810 Ry
     Harris-Foulkes estimate   =    -951.88836353 Ry
     estimated scf accuracy    <       0.00255510 Ry

     total magnetization       =    -0.00 Bohr mag/cell
     absolute magnetization    =     0.08 Bohr mag/cell

     iteration # 84     ecut=    70.00 Ry     beta= 0.70
     Davidson diagonalization with overlap
     ethr =  3.59E-07,  avg # of iterations =  1.0

     negative rho (up, down):  1.147E-03 8.033E-02

     total cpu time spent up to now is     7942.3 secs

     total energy              =    -951.88833833 Ry
     Harris-Foulkes estimate   =    -951.88839979 Ry
     estimated scf accuracy    <       0.00254765 Ry

     total magnetization       =     0.00 Bohr mag/cell
     absolute magnetization    =     0.08 Bohr mag/cell

     iteration # 85     ecut=    70.00 Ry     beta= 0.70
     Davidson diagonalization with overlap
     ethr =  3.59E-07,  avg # of iterations =  2.0

     negative rho (up, down):  1.230E-03 7.598E-02

     total cpu time spent up to now is     8030.5 secs

     total energy              =    -951.88828775 Ry
     Harris-Foulkes estimate   =    -951.88839791 Ry
     estimated scf accuracy    <       0.00381144 Ry

     total magnetization       =     0.00 Bohr mag/cell
     absolute magnetization    =     0.09 Bohr mag/cell

     iteration # 86     ecut=    70.00 Ry     beta= 0.70
     Davidson diagonalization with overlap
     ethr =  3.59E-07,  avg # of iterations =  2.0

     negative rho (up, down):  1.189E-03 7.052E-02

     total cpu time spent up to now is     8120.0 secs

     total energy              =    -951.88821399 Ry
     Harris-Foulkes estimate   =    -951.88840346 Ry
     estimated scf accuracy    <       0.00239292 Ry

     total magnetization       =     0.00 Bohr mag/cell
     absolute magnetization    =     0.07 Bohr mag/cell

     iteration # 87     ecut=    70.00 Ry     beta= 0.70
     Davidson diagonalization with overlap
     ethr =  3.59E-07,  avg # of iterations =  3.0

     negative rho (up, down):  1.408E-03 1.615E-01

     total cpu time spent up to now is     8223.0 secs

     total energy              =    -951.88804096 Ry
     Harris-Foulkes estimate   =    -951.88895990 Ry
     estimated scf accuracy    <       0.03216164 Ry

     total magnetization       =     0.00 Bohr mag/cell
     absolute magnetization    =     0.26 Bohr mag/cell

     iteration # 88     ecut=    70.00 Ry     beta= 0.70
     Davidson diagonalization with overlap
     ethr =  3.59E-07,  avg # of iterations =  4.5

     negative rho (up, down):  1.390E-03 1.470E-01

     total cpu time spent up to now is     8318.9 secs

     total energy              =    -951.88751641 Ry
     Harris-Foulkes estimate   =    -951.88814427 Ry
     estimated scf accuracy    <       0.01180929 Ry

     total magnetization       =    -0.00 Bohr mag/cell
     absolute magnetization    =     0.15 Bohr mag/cell

     iteration # 89     ecut=    70.00 Ry     beta= 0.70
     Davidson diagonalization with overlap
     ethr =  3.59E-07,  avg # of iterations =  3.0

     negative rho (up, down):  1.805E-03 7.212E-02

     total cpu time spent up to now is     8419.6 secs

     total energy              =    -951.88798820 Ry
     Harris-Foulkes estimate   =    -951.88818876 Ry
     estimated scf accuracy    <       0.01182958 Ry

     total magnetization       =     0.00 Bohr mag/cell
     absolute magnetization    =     0.12 Bohr mag/cell

     iteration # 90     ecut=    70.00 Ry     beta= 0.70
     Davidson diagonalization with overlap
     ethr =  3.59E-07,  avg # of iterations =  3.0

     negative rho (up, down):  1.363E-03 1.132E-01

     total cpu time spent up to now is     8516.9 secs

     total energy              =    -951.88846560 Ry
     Harris-Foulkes estimate   =    -951.88834925 Ry
     estimated scf accuracy    <       0.01189894 Ry

     total magnetization       =     0.00 Bohr mag/cell
     absolute magnetization    =     0.16 Bohr mag/cell

     iteration # 91     ecut=    70.00 Ry     beta= 0.70
     Davidson diagonalization with overlap
     ethr =  3.59E-07,  avg # of iterations =  2.5

     negative rho (up, down):  1.391E-03 1.450E-01

     total cpu time spent up to now is     8605.3 secs

     total energy              =    -951.88788699 Ry
     Harris-Foulkes estimate   =    -951.88848634 Ry
     estimated scf accuracy    <       0.01827761 Ry

     total magnetization       =    -0.00 Bohr mag/cell
     absolute magnetization    =     0.20 Bohr mag/cell

     iteration # 92     ecut=    70.00 Ry     beta= 0.70
     Davidson diagonalization with overlap
     ethr =  3.59E-07,  avg # of iterations =  3.5

     negative rho (up, down):  1.187E-03 1.352E-01

     total cpu time spent up to now is     8701.6 secs

     total energy              =    -951.88843444 Ry
     Harris-Foulkes estimate   =    -951.88823020 Ry
     estimated scf accuracy    <       0.01042900 Ry

     total magnetization       =    -0.00 Bohr mag/cell
     absolute magnetization    =     0.14 Bohr mag/cell

     iteration # 93     ecut=    70.00 Ry     beta= 0.70
     Davidson diagonalization with overlap
     ethr =  3.59E-07,  avg # of iterations =  2.5

     negative rho (up, down):  1.217E-03 1.710E-01

     total cpu time spent up to now is     8792.4 secs

     total energy              =    -951.88791689 Ry
     Harris-Foulkes estimate   =    -951.88851935 Ry
     estimated scf accuracy    <       0.02094758 Ry

     total magnetization       =     0.00 Bohr mag/cell
     absolute magnetization    =     0.22 Bohr mag/cell

     iteration # 94     ecut=    70.00 Ry     beta= 0.70
     Davidson diagonalization with overlap
     ethr =  3.59E-07,  avg # of iterations =  3.0

     negative rho (up, down):  1.175E-03 1.395E-01

     total cpu time spent up to now is     8885.7 secs

     total energy              =    -951.88782273 Ry
     Harris-Foulkes estimate   =    -951.88802682 Ry
     estimated scf accuracy    <       0.00592830 Ry

     total magnetization       =    -0.00 Bohr mag/cell
     absolute magnetization    =     0.11 Bohr mag/cell

     iteration # 95     ecut=    70.00 Ry     beta= 0.70
     Davidson diagonalization with overlap
     ethr =  3.59E-07,  avg # of iterations =  4.0

     negative rho (up, down):  1.345E-03 7.090E-02

     total cpu time spent up to now is     8985.6 secs

     total energy              =    -951.88805878 Ry
     Harris-Foulkes estimate   =    -951.88827829 Ry
     estimated scf accuracy    <       0.00837349 Ry

     total magnetization       =     0.00 Bohr mag/cell
     absolute magnetization    =     0.11 Bohr mag/cell

     iteration # 96     ecut=    70.00 Ry     beta= 0.70
     Davidson diagonalization with overlap
     ethr =  3.59E-07,  avg # of iterations =  4.5

     negative rho (up, down):  1.192E-03 2.343E-02

     total cpu time spent up to now is     9084.0 secs

     total energy              =    -951.88831978 Ry
     Harris-Foulkes estimate   =    -951.88834266 Ry
     estimated scf accuracy    <       0.00108265 Ry

     total magnetization       =    -0.00 Bohr mag/cell
     absolute magnetization    =     0.01 Bohr mag/cell

     iteration # 97     ecut=    70.00 Ry     beta= 0.70
     Davidson diagonalization with overlap
     ethr =  3.59E-07,  avg # of iterations =  2.5

     negative rho (up, down):  1.141E-03 6.132E-02

     total cpu time spent up to now is     9176.7 secs

     total energy              =    -951.88843624 Ry
     Harris-Foulkes estimate   =    -951.88846623 Ry
     estimated scf accuracy    <       0.00274189 Ry

     total magnetization       =     0.00 Bohr mag/cell
     absolute magnetization    =     0.08 Bohr mag/cell

     iteration # 98     ecut=    70.00 Ry     beta= 0.70
     Davidson diagonalization with overlap
     ethr =  3.59E-07,  avg # of iterations =  2.0

     negative rho (up, down):  1.144E-03 8.005E-02

     total cpu time spent up to now is     9262.4 secs

     total energy              =    -951.88843279 Ry
     Harris-Foulkes estimate   =    -951.88843819 Ry
     estimated scf accuracy    <       0.00273764 Ry

     total magnetization       =    -0.00 Bohr mag/cell
     absolute magnetization    =     0.08 Bohr mag/cell

     iteration # 99     ecut=    70.00 Ry     beta= 0.70
     Davidson diagonalization with overlap
     ethr =  3.59E-07,  avg # of iterations =  2.0

     negative rho (up, down):  1.807E-03 9.398E-02

     total cpu time spent up to now is     9354.0 secs

     total energy              =    -951.88818927 Ry
     Harris-Foulkes estimate   =    -951.88858711 Ry
     estimated scf accuracy    <       0.01345803 Ry

     total magnetization       =    -0.00 Bohr mag/cell
     absolute magnetization    =     0.14 Bohr mag/cell

     iteration #100     ecut=    70.00 Ry     beta= 0.70
     Davidson diagonalization with overlap
     ethr =  3.59E-07,  avg # of iterations =  3.0

     negative rho (up, down):  1.790E-03 1.549E-01

     Magnetic moment per site:
     atom:    1    charge:    0.2113    magn:    0.0000    constr:    0.0000
     atom:    2    charge:    0.2112    magn:    0.0000    constr:    0.0000
     atom:    3    charge:    1.7154    magn:   -0.0001    constr:    0.0000
     atom:    4    charge:    1.7150    magn:    0.0001    constr:    0.0000
     atom:    5    charge:    1.7166    magn:   -0.0000    constr:    0.0000
     atom:    6    charge:    1.7145    magn:    0.0001    constr:    0.0000
     atom:    7    charge:    1.7166    magn:   -0.0001    constr:    0.0000
     atom:    8    charge:    1.7151    magn:    0.0001    constr:    0.0000
     atom:    9    charge:    1.7153    magn:   -0.0001    constr:    0.0000
     atom:   10    charge:    1.7174    magn:    0.0001    constr:    0.0000
     atom:   11    charge:    1.7154    magn:   -0.0001    constr:    0.0000
     atom:   12    charge:    1.7174    magn:    0.0001    constr:    0.0000
     atom:   13    charge:    1.7156    magn:   -0.0001    constr:    0.0000
     atom:   14    charge:    1.7175    magn:    0.0001    constr:    0.0000
     atom:   15    charge:    1.7118    magn:   -0.0001    constr:    0.0000
     atom:   16    charge:    1.7115    magn:    0.0000    constr:    0.0000
     atom:   17    charge:    1.7208    magn:   -0.0000    constr:    0.0000
     atom:   18    charge:    1.7117    magn:    0.0001    constr:    0.0000
     atom:   19    charge:    1.7119    magn:   -0.0001    constr:    0.0000
     atom:   20    charge:    1.7176    magn:    0.0001    constr:    0.0000
     atom:   21    charge:    1.7155    magn:   -0.0001    constr:    0.0000
     atom:   22    charge:    1.7175    magn:    0.0001    constr:    0.0000
     atom:   23    charge:    1.7154    magn:   -0.0001    constr:    0.0000
     atom:   24    charge:    1.7152    magn:    0.0001    constr:    0.0000
     atom:   25    charge:    1.7118    magn:   -0.0001    constr:    0.0000
     atom:   26    charge:    1.7115    magn:    0.0000    constr:    0.0000
     atom:   27    charge:    1.8186    magn:   -0.0000    constr:    0.0000
     atom:   28    charge:   13.4075    magn:   -0.0001    constr:    0.0000
     atom:   29    charge:    1.8189    magn:   -0.0000    constr:    0.0000
     atom:   30    charge:    1.7116    magn:    0.0001    constr:    0.0000
     atom:   31    charge:    1.7119    magn:   -0.0001    constr:    0.0000
     atom:   32    charge:    1.7153    magn:    0.0000    constr:    0.0000
     atom:   33    charge:    1.7166    magn:   -0.0000    constr:    0.0000
     atom:   34    charge:    1.7153    magn:    0.0000    constr:    0.0000
     atom:   35    charge:    1.7166    magn:   -0.0000    constr:    0.0000
     atom:   36    charge:    1.7146    magn:    0.0001    constr:    0.0000
     atom:   37    charge:    1.7206    magn:   -0.0001    constr:    0.0000
     atom:   38    charge:    1.7114    magn:    0.0000    constr:    0.0000
     atom:   39    charge:    1.8184    magn:    0.0000    constr:    0.0000
     atom:   40    charge:    1.7114    magn:    0.0000    constr:    0.0000
     atom:   41    charge:    1.7208    magn:   -0.0000    constr:    0.0000
     atom:   42    charge:    1.7146    magn:    0.0000    constr:    0.0000
     atom:   43    charge:    1.7166    magn:   -0.0001    constr:    0.0000
     atom:   44    charge:    1.7152    magn:    0.0001    constr:    0.0000
     atom:   45    charge:    1.7209    magn:   -0.0000    constr:    0.0000
     atom:   46    charge:    1.7152    magn:    0.0001    constr:    0.0000
     atom:   47    charge:    1.7165    magn:   -0.0000    constr:    0.0000
     atom:   48    charge:    1.7150    magn:    0.0001    constr:    0.0000
     atom:   49    charge:    1.7116    magn:   -0.0001    constr:    0.0000
     atom:   50    charge:    1.7173    magn:    0.0001    constr:    0.0000
     atom:   51    charge:    1.7116    magn:   -0.0001    constr:    0.0000
     atom:   52    charge:    1.7150    magn:    0.0001    constr:    0.0000

     total cpu time spent up to now is     9453.1 secs

     total energy              =    -951.88778317 Ry
     Harris-Foulkes estimate   =    -951.88871544 Ry
     estimated scf accuracy    <       0.03364906 Ry

     total magnetization       =    -0.00 Bohr mag/cell
     absolute magnetization    =     0.26 Bohr mag/cell

     iteration #101     ecut=    70.00 Ry     beta= 0.70
     Davidson diagonalization with overlap
     ethr =  3.59E-07,  avg # of iterations =  6.5

     negative rho (up, down):  1.671E-03 1.341E-01

     total cpu time spent up to now is     9549.8 secs

     total energy              =    -951.88785925 Ry
     Harris-Foulkes estimate   =    -951.88794677 Ry
     estimated scf accuracy    <       0.01196336 Ry

     total magnetization       =     0.00 Bohr mag/cell
     absolute magnetization    =     0.15 Bohr mag/cell

     iteration #102     ecut=    70.00 Ry     beta= 0.70
     Davidson diagonalization with overlap
     ethr =  3.59E-07,  avg # of iterations =  2.5

     negative rho (up, down):  1.515E-03 1.202E-01

     total cpu time spent up to now is     9641.4 secs

     total energy              =    -951.88822522 Ry
     Harris-Foulkes estimate   =    -951.88806094 Ry
     estimated scf accuracy    <       0.01163694 Ry

     total magnetization       =     0.00 Bohr mag/cell
     absolute magnetization    =     0.15 Bohr mag/cell

     iteration #103     ecut=    70.00 Ry     beta= 0.70
     Davidson diagonalization with overlap
     ethr =  3.59E-07,  avg # of iterations =  2.5

     negative rho (up, down):  1.574E-03 1.233E-01

     total cpu time spent up to now is     9727.1 secs

     total energy              =    -951.88827888 Ry
     Harris-Foulkes estimate   =    -951.88822852 Ry
     estimated scf accuracy    <       0.01214324 Ry

     total magnetization       =    -0.00 Bohr mag/cell
     absolute magnetization    =     0.15 Bohr mag/cell

     iteration #104     ecut=    70.00 Ry     beta= 0.70
     Davidson diagonalization with overlap
     ethr =  3.59E-07,  avg # of iterations =  2.0

     negative rho (up, down):  1.643E-03 1.368E-01

     total cpu time spent up to now is     9813.2 secs

     total energy              =    -951.88810732 Ry
     Harris-Foulkes estimate   =    -951.88830802 Ry
     estimated scf accuracy    <       0.01745788 Ry

     total magnetization       =     0.00 Bohr mag/cell
     absolute magnetization    =     0.18 Bohr mag/cell

     iteration #105     ecut=    70.00 Ry     beta= 0.70
     Davidson diagonalization with overlap
     ethr =  3.59E-07,  avg # of iterations =  2.0

     negative rho (up, down):  1.462E-03 1.363E-01

     total cpu time spent up to now is     9904.8 secs

     total energy              =    -951.88834979 Ry
     Harris-Foulkes estimate   =    -951.88826427 Ry
     estimated scf accuracy    <       0.01345954 Ry

     total magnetization       =     0.00 Bohr mag/cell
     absolute magnetization    =     0.16 Bohr mag/cell

     iteration #106     ecut=    70.00 Ry     beta= 0.70
     Davidson diagonalization with overlap
     ethr =  3.59E-07,  avg # of iterations =  2.0

     negative rho (up, down):  1.690E-03 1.531E-01

     total cpu time spent up to now is     9997.2 secs

     total energy              =    -951.88823618 Ry
     Harris-Foulkes estimate   =    -951.88850386 Ry
     estimated scf accuracy    <       0.02653539 Ry

     total magnetization       =    -0.00 Bohr mag/cell
     absolute magnetization    =     0.23 Bohr mag/cell

     iteration #107     ecut=    70.00 Ry     beta= 0.70
     Davidson diagonalization with overlap
     ethr =  3.59E-07,  avg # of iterations =  2.0

     negative rho (up, down):  1.683E-03 1.543E-01

     total cpu time spent up to now is    10084.4 secs

     total energy              =    -951.88928825 Ry
     Harris-Foulkes estimate   =    -951.88828751 Ry
     estimated scf accuracy    <       0.02532082 Ry

     total magnetization       =     0.00 Bohr mag/cell
     absolute magnetization    =     0.22 Bohr mag/cell

     iteration #108     ecut=    70.00 Ry     beta= 0.70
     Davidson diagonalization with overlap
     ethr =  3.59E-07,  avg # of iterations =  4.0

     negative rho (up, down):  2.216E-03 2.087E-01

     total cpu time spent up to now is    10204.6 secs

     total energy              =    -951.89028283 Ry
     Harris-Foulkes estimate   =    -951.89097551 Ry
     estimated scf accuracy    <       0.12390088 Ry

     total magnetization       =    -0.00 Bohr mag/cell
     absolute magnetization    =     0.50 Bohr mag/cell

     iteration #109     ecut=    70.00 Ry     beta= 0.70
     Davidson diagonalization with overlap
     ethr =  3.59E-07,  avg # of iterations =  6.5

     negative rho (up, down):  2.640E-03 2.314E-01

     total cpu time spent up to now is    10304.4 secs

     total energy              =    -951.88344013 Ry
     Harris-Foulkes estimate   =    -951.89047292 Ry
     estimated scf accuracy    <       0.16087508 Ry

     total magnetization       =    -0.00 Bohr mag/cell
     absolute magnetization    =     0.58 Bohr mag/cell

     iteration #110     ecut=    70.00 Ry     beta= 0.70
     Davidson diagonalization with overlap
     ethr =  3.59E-07,  avg # of iterations =  4.5

     negative rho (up, down):  2.185E-03 1.455E-01

     total cpu time spent up to now is    10431.6 secs

     total energy              =    -951.88742144 Ry
     Harris-Foulkes estimate   =    -951.88633994 Ry
     estimated scf accuracy    <       0.00882666 Ry

     total magnetization       =     0.00 Bohr mag/cell
     absolute magnetization    =     0.10 Bohr mag/cell

     iteration #111     ecut=    70.00 Ry     beta= 0.70
     Davidson diagonalization with overlap
     ethr =  3.59E-07,  avg # of iterations =  7.0

     negative rho (up, down):  1.346E-03 9.172E-02

     total cpu time spent up to now is    10529.6 secs

     total energy              =    -951.88825564 Ry
     Harris-Foulkes estimate   =    -951.88761963 Ry
     estimated scf accuracy    <       0.00222480 Ry

     total magnetization       =     0.00 Bohr mag/cell
     absolute magnetization    =     0.07 Bohr mag/cell

[...]
     ethr =  4.60E-09,  avg # of iterations =  2.0

     negative rho (up, down):  1.108E-03 5.121E-03

     total cpu time spent up to now is    12212.3 secs

     total energy              =    -951.88845146 Ry
     Harris-Foulkes estimate   =    -951.88844954 Ry
     estimated scf accuracy    <       0.00000151 Ry

     total magnetization       =    -0.00 Bohr mag/cell
     absolute magnetization    =     0.00 Bohr mag/cell

     iteration #131     ecut=    70.00 Ry     beta= 0.70
     Davidson diagonalization with overlap
     ethr =  6.98E-10,  avg # of iterations =  3.0

     negative rho (up, down):  1.110E-03 7.028E-03

     total cpu time spent up to now is    12307.6 secs

     total energy              =    -951.88844935 Ry
     Harris-Foulkes estimate   =    -951.88845220 Ry
     estimated scf accuracy    <       0.00003216 Ry

     total magnetization       =     0.00 Bohr mag/cell
     absolute magnetization    =     0.01 Bohr mag/cell

     iteration #132     ecut=    70.00 Ry     beta= 0.70
     Davidson diagonalization with overlap
     ethr =  6.98E-10,  avg # of iterations =  3.0

     negative rho (up, down):  1.107E-03 4.082E-03

     total cpu time spent up to now is    12405.7 secs

     total energy              =    -951.88845172 Ry
     Harris-Foulkes estimate   =    -951.88845060 Ry
     estimated scf accuracy    <       0.00001217 Ry

     total magnetization       =     0.00 Bohr mag/cell
     absolute magnetization    =     0.01 Bohr mag/cell

     iteration #133     ecut=    70.00 Ry     beta= 0.70
     Davidson diagonalization with overlap
     ethr =  6.98E-10,  avg # of iterations =  2.0

     negative rho (up, down):  1.107E-03 5.933E-03

     total cpu time spent up to now is    12497.3 secs

     total energy              =    -951.88845153 Ry
     Harris-Foulkes estimate   =    -951.88845196 Ry
     estimated scf accuracy    <       0.00001296 Ry

     total magnetization       =    -0.00 Bohr mag/cell
     absolute magnetization    =     0.01 Bohr mag/cell

     iteration #134     ecut=    70.00 Ry     beta= 0.70
     Davidson diagonalization with overlap
     ethr =  6.98E-10,  avg # of iterations =  2.0

     negative rho (up, down):  1.108E-03 4.928E-03

     total cpu time spent up to now is    12586.5 secs

     total energy              =    -951.88845192 Ry
     Harris-Foulkes estimate   =    -951.88845167 Ry
     estimated scf accuracy    <       0.00000810 Ry

     total magnetization       =    -0.00 Bohr mag/cell
     absolute magnetization    =     0.00 Bohr mag/cell

     iteration #135     ecut=    70.00 Ry     beta= 0.70
     Davidson diagonalization with overlap
     ethr =  6.98E-10,  avg # of iterations =  2.0

     negative rho (up, down):  1.108E-03 7.711E-03

     total cpu time spent up to now is    12676.2 secs

     total energy              =    -951.88845128 Ry
     Harris-Foulkes estimate   =    -951.88845208 Ry
     estimated scf accuracy    <       0.00002818 Ry

     total magnetization       =    -0.00 Bohr mag/cell
     absolute magnetization    =     0.01 Bohr mag/cell

     iteration #136     ecut=    70.00 Ry     beta= 0.70
     Davidson diagonalization with overlap
     ethr =  6.98E-10,  avg # of iterations =  1.0

     negative rho (up, down):  1.108E-03 8.609E-03

     total cpu time spent up to now is    12760.5 secs

     total energy              =    -951.88845097 Ry
     Harris-Foulkes estimate   =    -951.88845129 Ry
     estimated scf accuracy    <       0.00002735 Ry

     total magnetization       =     0.00 Bohr mag/cell
     absolute magnetization    =     0.01 Bohr mag/cell

     iteration #137     ecut=    70.00 Ry     beta= 0.70
     Davidson diagonalization with overlap
     ethr =  6.98E-10,  avg # of iterations =  1.5

     negative rho (up, down):  1.109E-03 8.901E-03

     total cpu time spent up to now is    12844.9 secs

     total energy              =    -951.88845089 Ry
     Harris-Foulkes estimate   =    -951.88845099 Ry
     estimated scf accuracy    <       0.00002715 Ry

     total magnetization       =     0.00 Bohr mag/cell
     absolute magnetization    =     0.01 Bohr mag/cell

     iteration #138     ecut=    70.00 Ry     beta= 0.70
     Davidson diagonalization with overlap
     ethr =  6.98E-10,  avg # of iterations =  2.0

     negative rho (up, down):  1.108E-03 9.686E-03

     total cpu time spent up to now is    12930.8 secs

     total energy              =    -951.88845091 Ry
     Harris-Foulkes estimate   =    -951.88845094 Ry
     estimated scf accuracy    <       0.00003094 Ry

     total magnetization       =     0.00 Bohr mag/cell
     absolute magnetization    =     0.01 Bohr mag/cell

     iteration #139     ecut=    70.00 Ry     beta= 0.70
     Davidson diagonalization with overlap
     ethr =  6.98E-10,  avg # of iterations =  2.0

     negative rho (up, down):  1.109E-03 1.197E-02

     total cpu time spent up to now is    13019.9 secs

     total energy              =    -951.88845180 Ry
     Harris-Foulkes estimate   =    -951.88845104 Ry
     estimated scf accuracy    <       0.00004790 Ry

     total magnetization       =    -0.00 Bohr mag/cell
     absolute magnetization    =     0.01 Bohr mag/cell

     iteration #140     ecut=    70.00 Ry     beta= 0.70
     Davidson diagonalization with overlap
     ethr =  6.98E-10,  avg # of iterations =  3.0

     negative rho (up, down):  1.119E-03 2.721E-02

     total cpu time spent up to now is    13130.5 secs

     total energy              =    -951.88844036 Ry
     Harris-Foulkes estimate   =    -951.88845636 Ry
     estimated scf accuracy    <       0.00038998 Ry

     total magnetization       =     0.00 Bohr mag/cell
     absolute magnetization    =     0.03 Bohr mag/cell

     iteration #141     ecut=    70.00 Ry     beta= 0.70
     Davidson diagonalization with overlap
     ethr =  6.98E-10,  avg # of iterations =  3.0

     negative rho (up, down):  1.117E-03 2.763E-02

     total cpu time spent up to now is    13226.2 secs

     total energy              =    -951.88843707 Ry
     Harris-Foulkes estimate   =    -951.88844112 Ry
     estimated scf accuracy    <       0.00022939 Ry

     total magnetization       =     0.00 Bohr mag/cell
     absolute magnetization    =     0.02 Bohr mag/cell

     iteration #142     ecut=    70.00 Ry     beta= 0.70
     Davidson diagonalization with overlap
     ethr =  6.98E-10,  avg # of iterations =  3.0

     negative rho (up, down):  1.117E-03 1.908E-02

     total cpu time spent up to now is    13330.0 secs

     total energy              =    -951.88844076 Ry
     Harris-Foulkes estimate   =    -951.88843906 Ry
     estimated scf accuracy    <       0.00011229 Ry

     total magnetization       =    -0.00 Bohr mag/cell
     absolute magnetization    =     0.01 Bohr mag/cell

     iteration #143     ecut=    70.00 Ry     beta= 0.70
     Davidson diagonalization with overlap
     ethr =  6.98E-10,  avg # of iterations =  3.0

     negative rho (up, down):  1.108E-03 6.310E-05

     Magnetic moment per site:
     atom:    1    charge:    0.2113    magn:   -0.0000    constr:    0.0000
     atom:    2    charge:    0.2112    magn:    0.0000    constr:    0.0000
     atom:    3    charge:    1.7154    magn:   -0.0000    constr:    0.0000
     atom:    4    charge:    1.7152    magn:    0.0000    constr:    0.0000
     atom:    5    charge:    1.7168    magn:   -0.0000    constr:    0.0000
     atom:    6    charge:    1.7146    magn:    0.0000    constr:    0.0000
     atom:    7    charge:    1.7168    magn:   -0.0000    constr:    0.0000
     atom:    8    charge:    1.7152    magn:    0.0000    constr:    0.0000
     atom:    9    charge:    1.7155    magn:   -0.0000    constr:    0.0000
     atom:   10    charge:    1.7176    magn:    0.0000    constr:    0.0000
     atom:   11    charge:    1.7155    magn:   -0.0000    constr:    0.0000
     atom:   12    charge:    1.7176    magn:    0.0000    constr:    0.0000
     atom:   13    charge:    1.7155    magn:   -0.0000    constr:    0.0000
     atom:   14    charge:    1.7175    magn:    0.0000    constr:    0.0000
     atom:   15    charge:    1.7117    magn:   -0.0000    constr:    0.0000
     atom:   16    charge:    1.7114    magn:   -0.0000    constr:    0.0000
     atom:   17    charge:    1.7206    magn:   -0.0000    constr:    0.0000
     atom:   18    charge:    1.7114    magn:    0.0000    constr:    0.0000
     atom:   19    charge:    1.7118    magn:   -0.0000    constr:    0.0000
     atom:   20    charge:    1.7175    magn:    0.0000    constr:    0.0000
     atom:   21    charge:    1.7155    magn:   -0.0000    constr:    0.0000
     atom:   22    charge:    1.7176    magn:    0.0000    constr:    0.0000
     atom:   23    charge:    1.7155    magn:   -0.0000    constr:    0.0000
     atom:   24    charge:    1.7152    magn:    0.0000    constr:    0.0000
     atom:   25    charge:    1.7117    magn:   -0.0000    constr:    0.0000
     atom:   26    charge:    1.7114    magn:    0.0000    constr:    0.0000
     atom:   27    charge:    1.8183    magn:    0.0000    constr:    0.0000
     atom:   28    charge:   13.4054    magn:   -0.0000    constr:    0.0000
     atom:   29    charge:    1.8183    magn:   -0.0000    constr:    0.0000
     atom:   30    charge:    1.7114    magn:    0.0000    constr:    0.0000
     atom:   31    charge:    1.7117    magn:   -0.0000    constr:    0.0000
     atom:   32    charge:    1.7152    magn:    0.0000    constr:    0.0000
     atom:   33    charge:    1.7168    magn:   -0.0000    constr:    0.0000
     atom:   34    charge:    1.7154    magn:    0.0000    constr:    0.0000
     atom:   35    charge:    1.7168    magn:   -0.0000    constr:    0.0000
     atom:   36    charge:    1.7146    magn:    0.0000    constr:    0.0000
     atom:   37    charge:    1.7206    magn:   -0.0000    constr:    0.0000
     atom:   38    charge:    1.7114    magn:    0.0000    constr:    0.0000
     atom:   39    charge:    1.8183    magn:   -0.0000    constr:    0.0000
     atom:   40    charge:    1.7113    magn:    0.0000    constr:    0.0000
     atom:   41    charge:    1.7206    magn:   -0.0000    constr:    0.0000
     atom:   42    charge:    1.7146    magn:    0.0000    constr:    0.0000
     atom:   43    charge:    1.7168    magn:   -0.0000    constr:    0.0000
     atom:   44    charge:    1.7154    magn:    0.0000    constr:    0.0000
     atom:   45    charge:    1.7212    magn:   -0.0000    constr:    0.0000
     atom:   46    charge:    1.7154    magn:    0.0000    constr:    0.0000
     atom:   47    charge:    1.7168    magn:   -0.0000    constr:    0.0000
     atom:   48    charge:    1.7152    magn:    0.0000    constr:    0.0000
     atom:   49    charge:    1.7117    magn:   -0.0000    constr:    0.0000
     atom:   50    charge:    1.7175    magn:    0.0000    constr:    0.0000
     atom:   51    charge:    1.7117    magn:   -0.0000    constr:    0.0000
     atom:   52    charge:    1.7152    magn:    0.0000    constr:    0.0000

     total cpu time spent up to now is    13429.0 secs

     End of self-consistent calculation

 ------ SPIN UP ------------


          k = 0.0000 0.0000 0.0000 ( 87777 PWs)   bands (ev):

  -107.9227 -69.0912 -69.0906 -67.0072 -19.8271 -19.0079 -19.0076 -18.8889
   -18.8888 -18.8038 -18.7372 -17.1641 -17.1635 -17.1287 -17.0801 -17.0796
   -16.7538 -16.3130 -16.3127 -16.1663 -16.1661 -16.1528 -15.6709 -14.3117
   -14.3112 -14.1507 -14.0167 -14.0165 -13.5151 -13.1290 -13.1289 -13.0773
   -12.9016 -12.9014 -12.5011 -12.0767 -12.0766 -11.7128 -11.5688 -11.5687
   -10.9352 -10.4334 -10.4333  -9.5779  -9.3662  -9.3660  -9.2268  -9.2119
    -9.2118  -9.1971  -8.9534  -8.9533  -8.5939  -8.5937  -8.4582  -7.9476
    -7.9024  -7.8541  -7.8486  -7.6648  -7.5422  -7.5420  -7.4489  -7.4488
    -6.8468  -6.8224  -6.8217  -6.7824  -6.7426  -6.6198  -6.6196  -6.5557
    -6.5506  -6.5505  -6.5182  -6.4566  -6.4262  -6.4259  -6.3620  -6.2900
    -6.2899  -5.5471  -5.5470  -5.0310  -4.9499  -4.8431  -4.8430  -4.7578
    -4.7167  -4.7163  -4.4260  -4.3991  -4.3990  -3.8366  -3.8363  -3.7647
    -3.7592  -3.7592  -3.7257  -3.4207  -3.4200  -3.3495  -1.8921  -1.8063
    -1.8062  -1.5919  -1.5902  -1.1590   0.1036   0.1042   0.9039   0.9622
     0.9629   1.2110   1.2121   1.5480   2.5138   2.8017   2.8030   2.8523
     3.0368   3.0387   3.4422   3.6151   3.6233   3.7487   3.7526   3.7764
     3.8981   4.2127

     occupation numbers 
     1.0000   1.0000   1.0000   1.0000   1.0000   1.0000   1.0000   1.0000
     1.0000   1.0000   1.0000   1.0000   1.0000   1.0000   1.0000   1.0000
     1.0000   1.0000   1.0000   1.0000   1.0000   1.0000   1.0000   1.0000
     1.0000   1.0000   1.0000   1.0000   1.0000   1.0000   1.0000   1.0000
     1.0000   1.0000   1.0000   1.0000   1.0000   1.0000   1.0000   1.0000
     1.0000   1.0000   1.0000   1.0000   1.0000   1.0000   1.0000   1.0000
     1.0000   1.0000   1.0000   1.0000   1.0000   1.0000   1.0000   1.0000
     1.0000   1.0000   1.0000   1.0000   1.0000   1.0000   1.0000   1.0000
     1.0000   1.0000   1.0000   1.0000   1.0000   1.0000   1.0000   1.0000
     1.0000   1.0000   1.0000   1.0000   1.0000   1.0000   1.0000   1.0000
     1.0000   1.0000   1.0000   1.0000   1.0000   1.0000   1.0000   1.0000
     1.0000   1.0000   1.0000   1.0000   1.0000   1.0000   1.0000   1.0000
     1.0000   1.0000   1.0000   1.0000   1.0000   1.0000   1.0000   1.0000
     1.0000   1.0000   1.0000   1.0000   0.0000   0.0000   0.0000   0.0000
     0.0000   0.0000   0.0000   0.0000   0.0000   0.0000   0.0000   0.0000
     0.0000   0.0000   0.0000   0.0000   0.0000   0.0000   0.0000   0.0000
     0.0000   0.0000

 ------ SPIN DOWN ----------


          k = 0.0000 0.0000 0.0000 ( 87777 PWs)   bands (ev):

  -107.9227 -69.0912 -69.0907 -67.0072 -19.8271 -19.0079 -19.0076 -18.8889
   -18.8888 -18.8038 -18.7372 -17.1641 -17.1635 -17.1287 -17.0801 -17.0796
   -16.7538 -16.3130 -16.3127 -16.1663 -16.1661 -16.1528 -15.6709 -14.3117
   -14.3111 -14.1507 -14.0167 -14.0165 -13.5151 -13.1290 -13.1289 -13.0773
   -12.9016 -12.9014 -12.5011 -12.0767 -12.0766 -11.7128 -11.5688 -11.5687
   -10.9352 -10.4334 -10.4332  -9.5779  -9.3662  -9.3660  -9.2268  -9.2119
    -9.2118  -9.1971  -8.9534  -8.9533  -8.5939  -8.5937  -8.4582  -7.9476
    -7.9024  -7.8541  -7.8486  -7.6648  -7.5422  -7.5420  -7.4490  -7.4488
    -6.8468  -6.8224  -6.8217  -6.7824  -6.7426  -6.6198  -6.6196  -6.5557
    -6.5506  -6.5505  -6.5182  -6.4566  -6.4262  -6.4259  -6.3620  -6.2900
    -6.2899  -5.5471  -5.5470  -5.0310  -4.9499  -4.8431  -4.8430  -4.7578
    -4.7167  -4.7163  -4.4260  -4.3991  -4.3990  -3.8366  -3.8363  -3.7647
    -3.7592  -3.7592  -3.7257  -3.4207  -3.4200  -3.3495  -1.8921  -1.8063
    -1.8062  -1.5919  -1.5902  -1.1590   0.1034   0.1044   0.9039   0.9622
     0.9629   1.2110   1.2121   1.5480   2.5131   2.8017   2.8030   2.8523
     3.0368   3.0387   3.4421   3.6146   3.6222   3.7482   3.7520   3.7756
     3.8972   4.2123

     occupation numbers 
     1.0000   1.0000   1.0000   1.0000   1.0000   1.0000   1.0000   1.0000
     1.0000   1.0000   1.0000   1.0000   1.0000   1.0000   1.0000   1.0000
     1.0000   1.0000   1.0000   1.0000   1.0000   1.0000   1.0000   1.0000
     1.0000   1.0000   1.0000   1.0000   1.0000   1.0000   1.0000   1.0000
     1.0000   1.0000   1.0000   1.0000   1.0000   1.0000   1.0000   1.0000
     1.0000   1.0000   1.0000   1.0000   1.0000   1.0000   1.0000   1.0000
     1.0000   1.0000   1.0000   1.0000   1.0000   1.0000   1.0000   1.0000
     1.0000   1.0000   1.0000   1.0000   1.0000   1.0000   1.0000   1.0000
     1.0000   1.0000   1.0000   1.0000   1.0000   1.0000   1.0000   1.0000
     1.0000   1.0000   1.0000   1.0000   1.0000   1.0000   1.0000   1.0000
     1.0000   1.0000   1.0000   1.0000   1.0000   1.0000   1.0000   1.0000
     1.0000   1.0000   1.0000   1.0000   1.0000   1.0000   1.0000   1.0000
     1.0000   1.0000   1.0000   1.0000   1.0000   1.0000   1.0000   1.0000
     1.0000   1.0000   1.0000   1.0000   0.0000   0.0000   0.0000   0.0000
     0.0000   0.0000   0.0000   0.0000   0.0000   0.0000   0.0000   0.0000
     0.0000   0.0000   0.0000   0.0000   0.0000   0.0000   0.0000   0.0000
     0.0000   0.0000

     the Fermi energy is    -1.0189 ev

!    total energy              =    -951.88845189 Ry
     Harris-Foulkes estimate   =    -951.88844257 Ry
     estimated scf accuracy    <       0.00000073 Ry

     The total energy is the sum of the following terms:

     one-electron contribution =   -2974.00449820 Ry
     hartree contribution      =    1529.64529324 Ry
     xc contribution           =    -265.71984375 Ry
     ewald contribution        =     758.19059682 Ry
     smearing contrib. (-TS)   =       0.00000000 Ry

     total magnetization       =     0.00 Bohr mag/cell
     absolute magnetization    =     0.00 Bohr mag/cell

     convergence has been achieved in 143 iterations

     Writing output data file gr-12-baricentro.save/

     init_run     :     69.62s CPU     70.85s WALL (       1 calls)
     electrons    :  13110.60s CPU  13357.21s WALL (       1 calls)

     Called by init_run:
     wfcinit      :     37.19s CPU     37.48s WALL (       1 calls)
     wfcinit:atom :      0.06s CPU      0.09s WALL (       2 calls)
     wfcinit:wfcr :     36.80s CPU     37.00s WALL (       2 calls)
     potinit      :     13.34s CPU     13.68s WALL (       1 calls)
     hinit0       :     11.43s CPU     11.45s WALL (       1 calls)

     Called by electrons:
     c_bands      :   8313.43s CPU   8363.87s WALL (     143 calls)
     sum_band     :   2762.00s CPU   2845.10s WALL (     143 calls)
     v_of_rho     :    976.60s CPU   1019.59s WALL (     144 calls)
     v_h          :      9.83s CPU     10.09s WALL (     144 calls)
     v_xc         :    966.76s CPU   1009.49s WALL (     144 calls)
     newd         :    979.62s CPU   1048.91s WALL (     144 calls)
     mix_rho      :     62.16s CPU     63.04s WALL (     143 calls)

     Called by c_bands:
     init_us_2    :     23.54s CPU     23.63s WALL (     574 calls)
     cegterg      :   8247.88s CPU   8297.97s WALL (     286 calls)

     Called by sum_band:
     sum_band:bec :      0.23s CPU      0.23s WALL (     286 calls)
     addusdens    :   1699.09s CPU   1775.78s WALL (     143 calls)

     Called by *egterg:
     h_psi        :   4226.30s CPU   4259.60s WALL (    1147 calls)
     s_psi        :   1409.83s CPU   1411.14s WALL (    1147 calls)
     g_psi        :      5.09s CPU      5.11s WALL (     859 calls)
     cdiaghg      :     79.19s CPU     79.24s WALL (    1145 calls)
     cegterg:over :   1046.78s CPU   1047.69s WALL (     859 calls)
     cegterg:upda :    627.70s CPU    631.95s WALL (     859 calls)
     cegterg:last :    450.27s CPU    450.56s WALL (     286 calls)

     Called by h_psi:
     h_psi:pot    :   4221.31s CPU   4249.08s WALL (    1147 calls)
     h_psi:calbec :   1410.58s CPU   1411.77s WALL (    1147 calls)
     vloc_psi     :   1401.42s CPU   1426.95s WALL (    1147 calls)
     add_vuspsi   :   1409.29s CPU   1410.36s WALL (    1147 calls)

     General routines
     calbec       :   2028.38s CPU   2030.09s WALL (    1433 calls)
     fft          :    591.53s CPU    607.84s WALL (   10794 calls)
     ffts         :      9.46s CPU      9.75s WALL (     574 calls)
     fftw         :   1511.35s CPU   1539.42s WALL (  207270 calls)
     interpolate  :     22.17s CPU     22.78s WALL (     288 calls)

     Parallel routines
     fft_scatt_xy :    360.56s CPU    365.90s WALL (  218638 calls)
     fft_scatt_yz :    760.71s CPU    792.54s WALL (  218638 calls)

     PWSCF        :      3h39m CPU      3h43m WALL


   This run was terminated on:  13: 7: 9  25Dec2022            

=------------------------------------------------------------------------------=
   JOB DONE.
=------------------------------------------------------------------------------=
