
     Program PWSCF v.6.4.1 starts on  6Sep2022 at 10:39:29 

     This program is part of the open-source Quantum ESPRESSO suite
     for quantum simulation of materials; please cite
         "P. Giannozzi et al., J. Phys.:Condens. Matter 21 395502 (2009);
         "P. Giannozzi et al., J. Phys.:Condens. Matter 29 465901 (2017);
          URL http://www.quantum-espresso.org", 
     in publications or presentations arising from this work. More details at
     http://www.quantum-espresso.org/quote

     Parallel version (MPI), running on     6 processors

     MPI processes distributed on     1 nodes
     R & G space division:  proc/nbgrp/npool/nimage =       6
     Reading input from distance-5.0.in

     Current dimensions of program PWSCF are:
     Max number of different atomic species (ntypx) = 10
     Max number of k-points (npk) =  40000
     Max angular momentum in pseudopotentials (lmaxx) =  3

     IMPORTANT: XC functional enforced from input :
     Exchange-correlation      = RVV10 ( 1  4 13  4 3 0)
     Any further DFT definition will be discarded
     Please, verify this is what you really want

               file H.pbe-rrkjus.UPF: wavefunction(s)  1S renormalized
               file Cu.pbe-dn-rrkjus_psl.1.0.0.UPF: wavefunction(s)  3D renormalized

     Subspace diagonalization in iterative solution of the eigenvalue problem:
     a serial algorithm will be used


     Parallelization info
     --------------------
     sticks:   dense  smooth     PW     G-vecs:    dense   smooth      PW
     Min        3051    1746    432               270999   117096   14629
     Max        3053    1747    437               271001   117099   14630
     Sum       18313   10477   2611              1626001   702581   87777



     bravais-lattice index     =            4
     lattice parameter (alat)  =      23.2937  a.u.
     unit-cell volume          =    8879.8548 (a.u.)^3
     number of atoms/cell      =           52
     number of atomic types    =            3
     number of electrons       =       209.00
     number of Kohn-Sham states=          126
     kinetic-energy cutoff     =      70.0000  Ry
     charge density cutoff     =     490.0000  Ry
     convergence threshold     =      1.0E-06
     mixing beta               =       0.7000
     number of iterations used =            8  plain     mixing
     Exchange-correlation      = RVV10 ( 1  4 13  4 3 0)

     celldm(1)=  23.293684  celldm(2)=   0.000000  celldm(3)=   0.811261
     celldm(4)=   0.000000  celldm(5)=   0.000000  celldm(6)=   0.000000

     crystal axes: (cart. coord. in units of alat)
               a(1) = (   1.000000   0.000000   0.000000 )  
               a(2) = (  -0.500000   0.866025   0.000000 )  
               a(3) = (   0.000000   0.000000   0.811261 )  

     reciprocal axes: (cart. coord. in units 2 pi/alat)
               b(1) = (  1.000000  0.577350 -0.000000 )  
               b(2) = (  0.000000  1.154701  0.000000 )  
               b(3) = (  0.000000 -0.000000  1.232649 )  


     PseudoPot. # 1 for H  read from file:
     /home/cristian/Escritorio/Proyecto_Grafeno/pseudopotenciales/H.pbe-rrkjus.UPF
     MD5 check sum: 7cc9d459525c9a0585f487a71c3c9563
     Pseudo is Ultrasoft, Zval =  1.0
     Generated by new atomic code, or converted to UPF format
     Using radial grid of 1061 points,  2 beta functions with: 
                l(1) =   0
                l(2) =   0
     Q(r) pseudized with 0 coefficients 


     PseudoPot. # 2 for C  read from file:
     /home/cristian/Escritorio/Proyecto_Grafeno/pseudopotenciales/C.pbe-n-rrkjus_psl.1.0.0.UPF
     MD5 check sum: 1fdd950c42eb37d8afe3dd2f8d12311e
     Pseudo is Ultrasoft + core correction, Zval =  4.0
     Generated using "atomic" code by A. Dal Corso v.6.3MaX
     Using radial grid of 1073 points,  4 beta functions with: 
                l(1) =   0
                l(2) =   0
                l(3) =   1
                l(4) =   1
     Q(r) pseudized with 0 coefficients 


     PseudoPot. # 3 for Cu read from file:
     /home/cristian/Escritorio/Proyecto_Grafeno/pseudopotenciales/Cu.pbe-dn-rrkjus_psl.1.0.0.UPF
     MD5 check sum: ba3d6c84e19846e79d48cdc68ff7152b
     Pseudo is Ultrasoft + core correction, Zval = 11.0
     Generated using "atomic" code by A. Dal Corso v.6.3
     Using radial grid of 1199 points,  6 beta functions with: 
                l(1) =   0
                l(2) =   0
                l(3) =   1
                l(4) =   1
                l(5) =   2
                l(6) =   2
     Q(r) pseudized with 0 coefficients 


     vdW kernel table read from file rVV10_kernel_table
     MD5 check sum: b8e2538accc0c0b3206b45ba4daaba6c

     atomic species   valence    mass     pseudopotential
        H              1.00     1.00794     H ( 1.00)
        C              4.00    12.01070     C ( 1.00)
        Cu            11.00    63.54600     Cu( 1.00)

     Starting magnetic structure 
     atomic species   magnetization
        H            0.500
        C            0.300
        Cu           0.800

      2 Sym. Ops. (no inversion) found


                                    s                        frac. trans.

      isym =  1     identity                                     

 cryst.   s( 1) = (     1          0          0      )
                  (     0          1          0      )
                  (     0          0          1      )

 cart.    s( 1) = (  1.0000000  0.0000000  0.0000000 )
                  (  0.0000000  1.0000000  0.0000000 )
                  (  0.0000000  0.0000000  1.0000000 )


      isym =  2     inv. 180 deg rotation - cryst. axis [1,1,0]  

 cryst.   s( 2) = (     0         -1          0      )
                  (    -1          0          0      )
                  (     0          0          1      )

 cart.    s( 2) = (  0.5000000 -0.8660254  0.0000000 )
                  ( -0.8660254 -0.5000000  0.0000000 )
                  (  0.0000000  0.0000000  1.0000000 )


     point group C_s (m)    
     there are  2 classes
     the character table:

       E     s    
A'     1.00  1.00
A''    1.00 -1.00

     the symmetry operations in each class and the name of the first element:

     E        1
          identity                                               
     s        2
          inv. 180 deg rotation - cryst. axis [1,1,0]            

   Cartesian axes

     site n.     atom                  positions (alat units)
         1           H   tau(   1) = (   0.3000000   0.4041452   0.4056306  )
         2           H   tau(   2) = (   0.3000000   0.4041452   0.4666433  )
         3           C   tau(   3) = (   0.0000000   0.0000000   0.0000000  )
         4           C   tau(   4) = (   0.0000000   0.1154701   0.0000000  )
         5           C   tau(   5) = (  -0.1000000   0.1732051   0.0000000  )
         6           C   tau(   6) = (  -0.1000000   0.2886751   0.0000000  )
         7           C   tau(   7) = (  -0.2000000   0.3464102   0.0000000  )
         8           C   tau(   8) = (  -0.2000000   0.4618802   0.0000000  )
         9           C   tau(   9) = (  -0.3000000   0.5196152   0.0000000  )
        10           C   tau(  10) = (  -0.3000000   0.6350853   0.0000000  )
        11           C   tau(  11) = (  -0.4000000   0.6928203   0.0000000  )
        12           C   tau(  12) = (  -0.4000000   0.8082904   0.0000000  )
        13           C   tau(  13) = (   0.2000000   0.0000000   0.0000000  )
        14           C   tau(  14) = (   0.2000000   0.1154701   0.0000000  )
        15           C   tau(  15) = (   0.1000000   0.1732051   0.0000000  )
        16           C   tau(  16) = (   0.1000000   0.2886751   0.0000000  )
        17           C   tau(  17) = (   0.0000000   0.3464102   0.0000000  )
        18           C   tau(  18) = (   0.0000000   0.4618802   0.0000000  )
        19           C   tau(  19) = (  -0.1000000   0.5196152   0.0000000  )
        20           C   tau(  20) = (  -0.1000000   0.6350853   0.0000000  )
        21           C   tau(  21) = (  -0.2000000   0.6928203   0.0000000  )
        22           C   tau(  22) = (  -0.2000000   0.8082904   0.0000000  )
        23           C   tau(  23) = (   0.4000000   0.0000000   0.0000000  )
        24           C   tau(  24) = (   0.4000000   0.1154701   0.0000000  )
        25           C   tau(  25) = (   0.3000000   0.1732051   0.0000000  )
        26           C   tau(  26) = (   0.3000000   0.2886751   0.0000000  )
        27           C   tau(  27) = (   0.2000000   0.3464102   0.0000000  )
        28           Cu  tau(  28) = (   0.2000000   0.4618802   0.0000000  )
        29           C   tau(  29) = (   0.1000000   0.5196152   0.0000000  )
        30           C   tau(  30) = (   0.1000000   0.6350853   0.0000000  )
        31           C   tau(  31) = (   0.0000000   0.6928203   0.0000000  )
        32           C   tau(  32) = (   0.0000000   0.8082904   0.0000000  )
        33           C   tau(  33) = (   0.6000000   0.0000000   0.0000000  )
        34           C   tau(  34) = (   0.6000000   0.1154701   0.0000000  )
        35           C   tau(  35) = (   0.5000000   0.1732051   0.0000000  )
        36           C   tau(  36) = (   0.5000000   0.2886751   0.0000000  )
        37           C   tau(  37) = (   0.4000000   0.3464102   0.0000000  )
        38           C   tau(  38) = (   0.4000000   0.4618802   0.0000000  )
        39           C   tau(  39) = (   0.3000000   0.5196152   0.0000000  )
        40           C   tau(  40) = (   0.3000000   0.6350853   0.0000000  )
        41           C   tau(  41) = (   0.2000000   0.6928203   0.0000000  )
        42           C   tau(  42) = (   0.2000000   0.8082904   0.0000000  )
        43           C   tau(  43) = (   0.8000000   0.0000000   0.0000000  )
        44           C   tau(  44) = (   0.8000000   0.1154701   0.0000000  )
        45           C   tau(  45) = (   0.7000000   0.1732051   0.0000000  )
        46           C   tau(  46) = (   0.7000000   0.2886751   0.0000000  )
        47           C   tau(  47) = (   0.6000000   0.3464102   0.0000000  )
        48           C   tau(  48) = (   0.6000000   0.4618802   0.0000000  )
        49           C   tau(  49) = (   0.5000000   0.5196152   0.0000000  )
        50           C   tau(  50) = (   0.5000000   0.6350853   0.0000000  )
        51           C   tau(  51) = (   0.4000000   0.6928203   0.0000000  )
        52           C   tau(  52) = (   0.4000000   0.8082904   0.0000000  )

   Crystallographic axes

     site n.     atom                  positions (cryst. coord.)
         1           H   tau(   1) = (  0.5333333  0.4666667  0.5000000  )
         2           H   tau(   2) = (  0.5333333  0.4666667  0.5752072  )
         3           C   tau(   3) = (  0.0000000  0.0000000  0.0000000  )
         4           C   tau(   4) = (  0.0666667  0.1333333  0.0000000  )
         5           C   tau(   5) = (  0.0000000  0.2000000  0.0000000  )
         6           C   tau(   6) = (  0.0666667  0.3333333  0.0000000  )
         7           C   tau(   7) = (  0.0000000  0.4000000  0.0000000  )
         8           C   tau(   8) = (  0.0666667  0.5333333  0.0000000  )
         9           C   tau(   9) = (  0.0000000  0.6000000  0.0000000  )
        10           C   tau(  10) = (  0.0666667  0.7333333  0.0000000  )
        11           C   tau(  11) = (  0.0000000  0.8000000  0.0000000  )
        12           C   tau(  12) = (  0.0666667  0.9333333  0.0000000  )
        13           C   tau(  13) = (  0.2000000  0.0000000  0.0000000  )
        14           C   tau(  14) = (  0.2666667  0.1333333  0.0000000  )
        15           C   tau(  15) = (  0.2000000  0.2000000  0.0000000  )
        16           C   tau(  16) = (  0.2666667  0.3333333  0.0000000  )
        17           C   tau(  17) = (  0.2000000  0.4000000  0.0000000  )
        18           C   tau(  18) = (  0.2666667  0.5333333  0.0000000  )
        19           C   tau(  19) = (  0.2000000  0.6000000  0.0000000  )
        20           C   tau(  20) = (  0.2666667  0.7333333  0.0000000  )
        21           C   tau(  21) = (  0.2000000  0.8000000  0.0000000  )
        22           C   tau(  22) = (  0.2666667  0.9333333  0.0000000  )
        23           C   tau(  23) = (  0.4000000  0.0000000  0.0000000  )
        24           C   tau(  24) = (  0.4666667  0.1333333  0.0000000  )
        25           C   tau(  25) = (  0.4000000  0.2000000  0.0000000  )
        26           C   tau(  26) = (  0.4666667  0.3333333  0.0000000  )
        27           C   tau(  27) = (  0.4000000  0.4000000  0.0000000  )
        28           Cu  tau(  28) = (  0.4666667  0.5333333  0.0000000  )
        29           C   tau(  29) = (  0.4000000  0.6000000  0.0000000  )
        30           C   tau(  30) = (  0.4666667  0.7333333  0.0000000  )
        31           C   tau(  31) = (  0.4000000  0.8000000  0.0000000  )
        32           C   tau(  32) = (  0.4666667  0.9333333  0.0000000  )
        33           C   tau(  33) = (  0.6000000  0.0000000  0.0000000  )
        34           C   tau(  34) = (  0.6666667  0.1333333  0.0000000  )
        35           C   tau(  35) = (  0.6000000  0.2000000  0.0000000  )
        36           C   tau(  36) = (  0.6666667  0.3333333  0.0000000  )
        37           C   tau(  37) = (  0.6000000  0.4000000  0.0000000  )
        38           C   tau(  38) = (  0.6666667  0.5333333  0.0000000  )
        39           C   tau(  39) = (  0.6000000  0.6000000  0.0000000  )
        40           C   tau(  40) = (  0.6666667  0.7333333  0.0000000  )
        41           C   tau(  41) = (  0.6000000  0.8000000  0.0000000  )
        42           C   tau(  42) = (  0.6666667  0.9333333  0.0000000  )
        43           C   tau(  43) = (  0.8000000  0.0000000  0.0000000  )
        44           C   tau(  44) = (  0.8666667  0.1333333  0.0000000  )
        45           C   tau(  45) = (  0.8000000  0.2000000  0.0000000  )
        46           C   tau(  46) = (  0.8666667  0.3333333  0.0000000  )
        47           C   tau(  47) = (  0.8000000  0.4000000  0.0000000  )
        48           C   tau(  48) = (  0.8666667  0.5333333  0.0000000  )
        49           C   tau(  49) = (  0.8000000  0.6000000  0.0000000  )
        50           C   tau(  50) = (  0.8666667  0.7333333  0.0000000  )
        51           C   tau(  51) = (  0.8000000  0.8000000  0.0000000  )
        52           C   tau(  52) = (  0.8666667  0.9333333  0.0000000  )

     number of k points=     1  Marzari-Vanderbilt smearing, width (Ry)=  0.0010
                       cart. coord. in units 2pi/alat
        k(    1) = (   0.0000000   0.0000000   0.0000000), wk =   1.0000000

                       cryst. coord.
        k(    1) = (   0.0000000   0.0000000   0.0000000), wk =   1.0000000

     Dense  grid:  1626001 G-vectors     FFT dimensions: ( 180, 180, 135)

     Smooth grid:   702581 G-vectors     FFT dimensions: ( 125, 125, 108)

     Dynamical RAM for                 wfc:      28.14 MB

     Dynamical RAM for     wfc (w. buffer):      84.42 MB

     Dynamical RAM for           str. fact:      12.41 MB

     Dynamical RAM for           local pot:       0.00 MB

     Dynamical RAM for          nlocal pot:      92.46 MB

     Dynamical RAM for                qrad:      19.73 MB

     Dynamical RAM for          rho,v,vnew:      58.92 MB

     Dynamical RAM for               rhoin:      19.64 MB

     Dynamical RAM for            rho*nmix:     132.32 MB

     Dynamical RAM for           G-vectors:      16.40 MB

     Dynamical RAM for          h,s,v(r/c):      11.63 MB

     Dynamical RAM for          <psi|beta>:       0.80 MB

     Dynamical RAM for                 psi:     112.56 MB

     Dynamical RAM for                hpsi:     112.56 MB

     Dynamical RAM for                spsi:     112.56 MB

     Dynamical RAM for      wfcinit/wfcrot:      93.45 MB

     Dynamical RAM for           addusdens:     975.89 MB

     Estimated static dynamical RAM per process >     486.96 MB

     Estimated max dynamical RAM per process >       1.43 GB

     Estimated total dynamical RAM >       8.57 GB
     Generating pointlists ...
     new r_m :   0.0252 (alat units)  0.5862 (a.u.) for type    1
     new r_m :   0.0476 (alat units)  1.1095 (a.u.) for type    2
     new r_m :   0.0476 (alat units)  1.1095 (a.u.) for type    3

     Check: negative core charge=   -0.000002

     Initial potential from superposition of free atoms

     starting charge  208.80532, renormalised to  209.00000

     negative rho (up, down):  6.955E-05 9.106E-03


---------------------------------------------------------------------------------
Carrying out rVV10 run using the following parameters:
Nqs =      20    Nr_points =    1024   r_max =   100.000
b_value =  6.30000    beta =  0.00901
     q_mesh =  0.00010000  0.00030000  0.00058939  0.00100810
               0.00161396  0.00249058  0.00375900  0.00559430
               0.00824984  0.01209221  0.01765183  0.02569619
               0.03733578  0.05417739  0.07854596  0.11380545
               0.16482331  0.23864234  0.34545298  0.50000000

Gradients computed in Reciprocal space

---------------------------------------------------------------------------------


     Starting wfcs are  207 randomized atomic wfcs

     total cpu time spent up to now is       78.6 secs

     Self-consistent Calculation

     iteration #  1     ecut=    70.00 Ry     beta= 0.70
     Davidson diagonalization with overlap
     ethr =  1.00E-02,  avg # of iterations =  2.5

     negative rho (up, down):  1.335E-04 9.712E-03

     total cpu time spent up to now is      205.5 secs

     total energy              =    -726.86479367 Ry
     Harris-Foulkes estimate   =    -734.97140125 Ry
     estimated scf accuracy    <      14.87811819 Ry

     total magnetization       =     7.00 Bohr mag/cell
     absolute magnetization    =     7.40 Bohr mag/cell

     iteration #  2     ecut=    70.00 Ry     beta= 0.70
     Davidson diagonalization with overlap
     ethr =  7.12E-03,  avg # of iterations =  4.0

     negative rho (up, down):  1.424E-04 8.513E-03

     total cpu time spent up to now is      331.1 secs

     total energy              =    -727.35520751 Ry
     Harris-Foulkes estimate   =    -746.02798085 Ry
     estimated scf accuracy    <      50.29025811 Ry

     total magnetization       =     2.49 Bohr mag/cell
     absolute magnetization    =     2.80 Bohr mag/cell

     iteration #  3     ecut=    70.00 Ry     beta= 0.70
     Davidson diagonalization with overlap
     ethr =  7.12E-03,  avg # of iterations =  4.0

     negative rho (up, down):  1.705E-04 7.649E-03

     total cpu time spent up to now is      440.6 secs

     total energy              =    -731.99540269 Ry
     Harris-Foulkes estimate   =    -736.40848796 Ry
     estimated scf accuracy    <      12.65519572 Ry

     total magnetization       =     3.00 Bohr mag/cell
     absolute magnetization    =     3.24 Bohr mag/cell

     iteration #  4     ecut=    70.00 Ry     beta= 0.70
     Davidson diagonalization with overlap
     ethr =  6.06E-03,  avg # of iterations =  3.0

     negative rho (up, down):  2.128E-04 5.668E-03

     total cpu time spent up to now is      538.1 secs

     total energy              =    -733.74523347 Ry
     Harris-Foulkes estimate   =    -734.93850978 Ry
     estimated scf accuracy    <       5.15199225 Ry

     total magnetization       =     3.00 Bohr mag/cell
     absolute magnetization    =     3.18 Bohr mag/cell

     iteration #  5     ecut=    70.00 Ry     beta= 0.70
     Davidson diagonalization with overlap
     ethr =  2.47E-03,  avg # of iterations =  2.0

     negative rho (up, down):  2.400E-04 8.538E-03

     total cpu time spent up to now is      635.0 secs

     total energy              =    -734.29536360 Ry
     Harris-Foulkes estimate   =    -735.12511007 Ry
     estimated scf accuracy    <       4.03404424 Ry

     total magnetization       =     1.00 Bohr mag/cell
     absolute magnetization    =     1.52 Bohr mag/cell

     iteration #  6     ecut=    70.00 Ry     beta= 0.70
     Davidson diagonalization with overlap
     ethr =  1.93E-03,  avg # of iterations =  2.0

     negative rho (up, down):  2.940E-04 1.423E-02

     total cpu time spent up to now is      728.4 secs

     total energy              =    -734.68844743 Ry
     Harris-Foulkes estimate   =    -734.76961400 Ry
     estimated scf accuracy    <       0.22277823 Ry

     total magnetization       =     1.00 Bohr mag/cell
     absolute magnetization    =     1.40 Bohr mag/cell

     iteration #  7     ecut=    70.00 Ry     beta= 0.70
     Davidson diagonalization with overlap
     ethr =  1.07E-04,  avg # of iterations =  6.0

     negative rho (up, down):  4.128E-04 1.175E-02

     total cpu time spent up to now is      844.4 secs

     total energy              =    -734.71819991 Ry
     Harris-Foulkes estimate   =    -734.80270240 Ry
     estimated scf accuracy    <       0.30131369 Ry

     total magnetization       =     1.00 Bohr mag/cell
     absolute magnetization    =     1.27 Bohr mag/cell

     iteration #  8     ecut=    70.00 Ry     beta= 0.70
     Davidson diagonalization with overlap
     ethr =  1.07E-04,  avg # of iterations =  3.0

     negative rho (up, down):  4.972E-04 5.108E-03

     total cpu time spent up to now is      939.9 secs

     total energy              =    -734.74771187 Ry
     Harris-Foulkes estimate   =    -734.76430800 Ry
     estimated scf accuracy    <       0.05920758 Ry

     total magnetization       =     1.00 Bohr mag/cell
     absolute magnetization    =     1.22 Bohr mag/cell

     iteration #  9     ecut=    70.00 Ry     beta= 0.70
     Davidson diagonalization with overlap
     ethr =  2.83E-05,  avg # of iterations =  5.5

     negative rho (up, down):  5.501E-04 2.893E-03

     total cpu time spent up to now is     1050.5 secs

     total energy              =    -734.75634333 Ry
     Harris-Foulkes estimate   =    -734.76011814 Ry
     estimated scf accuracy    <       0.04512548 Ry

     total magnetization       =     1.00 Bohr mag/cell
     absolute magnetization    =     1.18 Bohr mag/cell

     iteration # 10     ecut=    70.00 Ry     beta= 0.70
     Davidson diagonalization with overlap
     ethr =  2.16E-05,  avg # of iterations =  1.0

     negative rho (up, down):  5.768E-04 2.433E-03

     total cpu time spent up to now is     1149.7 secs

     total energy              =    -734.75717126 Ry
     Harris-Foulkes estimate   =    -734.75838759 Ry
     estimated scf accuracy    <       0.00478256 Ry

     total magnetization       =     1.00 Bohr mag/cell
     absolute magnetization    =     1.14 Bohr mag/cell

     iteration # 11     ecut=    70.00 Ry     beta= 0.70
     Davidson diagonalization with overlap
     ethr =  2.29E-06,  avg # of iterations =  7.5

     negative rho (up, down):  5.794E-04 2.188E-03

     total cpu time spent up to now is     1268.0 secs

     total energy              =    -734.75790035 Ry
     Harris-Foulkes estimate   =    -734.75817827 Ry
     estimated scf accuracy    <       0.00172742 Ry

     total magnetization       =     1.00 Bohr mag/cell
     absolute magnetization    =     1.11 Bohr mag/cell

     iteration # 12     ecut=    70.00 Ry     beta= 0.70
     Davidson diagonalization with overlap
     ethr =  8.27E-07,  avg # of iterations =  2.0

     negative rho (up, down):  5.767E-04 1.801E-03

     total cpu time spent up to now is     1370.5 secs

     total energy              =    -734.75809319 Ry
     Harris-Foulkes estimate   =    -734.75811276 Ry
     estimated scf accuracy    <       0.00020901 Ry

     total magnetization       =     1.00 Bohr mag/cell
     absolute magnetization    =     1.10 Bohr mag/cell

     iteration # 13     ecut=    70.00 Ry     beta= 0.70
     Davidson diagonalization with overlap
     ethr =  1.00E-07,  avg # of iterations =  3.0

     negative rho (up, down):  5.711E-04 1.513E-03

     total cpu time spent up to now is     1480.3 secs

     total energy              =    -734.75813742 Ry
     Harris-Foulkes estimate   =    -734.75813508 Ry
     estimated scf accuracy    <       0.00017111 Ry

     total magnetization       =     1.00 Bohr mag/cell
     absolute magnetization    =     1.08 Bohr mag/cell

     iteration # 14     ecut=    70.00 Ry     beta= 0.70
     Davidson diagonalization with overlap
     ethr =  8.19E-08,  avg # of iterations =  1.0

     negative rho (up, down):  5.682E-04 1.501E-03

     total cpu time spent up to now is     1577.9 secs

     total energy              =    -734.75814692 Ry
     Harris-Foulkes estimate   =    -734.75814701 Ry
     estimated scf accuracy    <       0.00036923 Ry

     total magnetization       =     1.00 Bohr mag/cell
     absolute magnetization    =     1.08 Bohr mag/cell

     iteration # 15     ecut=    70.00 Ry     beta= 0.70
     Davidson diagonalization with overlap
     ethr =  8.19E-08,  avg # of iterations =  1.0

     negative rho (up, down):  5.681E-04 1.495E-03

     total cpu time spent up to now is     1678.2 secs

     total energy              =    -734.75814423 Ry
     Harris-Foulkes estimate   =    -734.75814968 Ry
     estimated scf accuracy    <       0.00026123 Ry

     total magnetization       =     1.00 Bohr mag/cell
     absolute magnetization    =     1.07 Bohr mag/cell

     iteration # 16     ecut=    70.00 Ry     beta= 0.70
     Davidson diagonalization with overlap
     ethr =  8.19E-08,  avg # of iterations =  1.0

     negative rho (up, down):  5.664E-04 1.452E-03

     total cpu time spent up to now is     1775.1 secs

     total energy              =    -734.75814822 Ry
     Harris-Foulkes estimate   =    -734.75814814 Ry
     estimated scf accuracy    <       0.00003781 Ry

     total magnetization       =     1.00 Bohr mag/cell
     absolute magnetization    =     1.07 Bohr mag/cell

     iteration # 17     ecut=    70.00 Ry     beta= 0.70
     Davidson diagonalization with overlap
     ethr =  1.81E-08,  avg # of iterations =  1.5

     negative rho (up, down):  5.657E-04 1.456E-03

     total cpu time spent up to now is     1874.0 secs

     total energy              =    -734.75815041 Ry
     Harris-Foulkes estimate   =    -734.75814996 Ry
     estimated scf accuracy    <       0.00003804 Ry

     total magnetization       =     1.00 Bohr mag/cell
     absolute magnetization    =     1.07 Bohr mag/cell

     iteration # 18     ecut=    70.00 Ry     beta= 0.70
     Davidson diagonalization with overlap
     ethr =  1.81E-08,  avg # of iterations =  1.5

     negative rho (up, down):  5.650E-04 1.451E-03

     total cpu time spent up to now is     1973.0 secs

     total energy              =    -734.75815111 Ry
     Harris-Foulkes estimate   =    -734.75815132 Ry
     estimated scf accuracy    <       0.00004792 Ry

     total magnetization       =     1.00 Bohr mag/cell
     absolute magnetization    =     1.07 Bohr mag/cell

     iteration # 19     ecut=    70.00 Ry     beta= 0.70
     Davidson diagonalization with overlap
     ethr =  1.81E-08,  avg # of iterations =  1.5

     negative rho (up, down):  5.651E-04 1.451E-03

     total cpu time spent up to now is     2071.6 secs

     total energy              =    -734.75815217 Ry
     Harris-Foulkes estimate   =    -734.75815238 Ry
     estimated scf accuracy    <       0.00003223 Ry

     total magnetization       =     1.00 Bohr mag/cell
     absolute magnetization    =     1.06 Bohr mag/cell

     iteration # 20     ecut=    70.00 Ry     beta= 0.70
     Davidson diagonalization with overlap
     ethr =  1.54E-08,  avg # of iterations =  1.5

     negative rho (up, down):  5.651E-04 1.449E-03

     total cpu time spent up to now is     2169.0 secs

     total energy              =    -734.75815232 Ry
     Harris-Foulkes estimate   =    -734.75815272 Ry
     estimated scf accuracy    <       0.00001899 Ry

     total magnetization       =     1.00 Bohr mag/cell
     absolute magnetization    =     1.06 Bohr mag/cell

     iteration # 21     ecut=    70.00 Ry     beta= 0.70
     Davidson diagonalization with overlap
     ethr =  9.09E-09,  avg # of iterations =  1.5

     negative rho (up, down):  5.654E-04 1.426E-03

     total cpu time spent up to now is     2267.7 secs

     total energy              =    -734.75815206 Ry
     Harris-Foulkes estimate   =    -734.75815283 Ry
     estimated scf accuracy    <       0.00000573 Ry

     total magnetization       =     1.00 Bohr mag/cell
     absolute magnetization    =     1.06 Bohr mag/cell

     iteration # 22     ecut=    70.00 Ry     beta= 0.70
     Davidson diagonalization with overlap
     ethr =  2.74E-09,  avg # of iterations =  3.0

     negative rho (up, down):  5.654E-04 1.430E-03

     total cpu time spent up to now is     2377.6 secs

     total energy              =    -734.75815308 Ry
     Harris-Foulkes estimate   =    -734.75815312 Ry
     estimated scf accuracy    <       0.00000150 Ry

     total magnetization       =     1.00 Bohr mag/cell
     absolute magnetization    =     1.06 Bohr mag/cell

     iteration # 23     ecut=    70.00 Ry     beta= 0.70
     Davidson diagonalization with overlap
     ethr =  7.17E-10,  avg # of iterations =  2.0

     negative rho (up, down):  5.656E-04 1.429E-03

     total cpu time spent up to now is     2476.2 secs

     total energy              =    -734.75815306 Ry
     Harris-Foulkes estimate   =    -734.75815314 Ry
     estimated scf accuracy    <       0.00000123 Ry

     total magnetization       =     1.00 Bohr mag/cell
     absolute magnetization    =     1.06 Bohr mag/cell

     iteration # 24     ecut=    70.00 Ry     beta= 0.70
     Davidson diagonalization with overlap
     ethr =  5.88E-10,  avg # of iterations =  2.0

     negative rho (up, down):  5.655E-04 1.436E-03

     Magnetic moment per site:
     atom:    1    charge:    0.2116    magn:   -0.0000    constr:    0.0000
     atom:    2    charge:    0.2111    magn:   -0.0000    constr:    0.0000
     atom:    3    charge:    1.7158    magn:    0.0016    constr:    0.0000
     atom:    4    charge:    1.7153    magn:    0.0017    constr:    0.0000
     atom:    5    charge:    1.7169    magn:    0.0000    constr:    0.0000
     atom:    6    charge:    1.7146    magn:   -0.0001    constr:    0.0000
     atom:    7    charge:    1.7170    magn:    0.0000    constr:    0.0000
     atom:    8    charge:    1.7153    magn:    0.0017    constr:    0.0000
     atom:    9    charge:    1.7158    magn:    0.0016    constr:    0.0000
     atom:   10    charge:    1.7170    magn:   -0.0009    constr:    0.0000
     atom:   11    charge:    1.7160    magn:    0.0006    constr:    0.0000
     atom:   12    charge:    1.7170    magn:   -0.0009    constr:    0.0000
     atom:   13    charge:    1.7160    magn:    0.0006    constr:    0.0000
     atom:   14    charge:    1.7169    magn:   -0.0010    constr:    0.0000
     atom:   15    charge:    1.7130    magn:    0.0072    constr:    0.0000
     atom:   16    charge:    1.7108    magn:    0.0132    constr:    0.0000
     atom:   17    charge:    1.7214    magn:    0.0030    constr:    0.0000
     atom:   18    charge:    1.7108    magn:    0.0132    constr:    0.0000
     atom:   19    charge:    1.7130    magn:    0.0072    constr:    0.0000
     atom:   20    charge:    1.7169    magn:   -0.0010    constr:    0.0000
     atom:   21    charge:    1.7160    magn:    0.0006    constr:    0.0000
     atom:   22    charge:    1.7170    magn:   -0.0009    constr:    0.0000
     atom:   23    charge:    1.7158    magn:    0.0016    constr:    0.0000
     atom:   24    charge:    1.7153    magn:    0.0017    constr:    0.0000
     atom:   25    charge:    1.7130    magn:    0.0072    constr:    0.0000
     atom:   26    charge:    1.7108    magn:    0.0132    constr:    0.0000
     atom:   27    charge:    1.8173    magn:    0.0796    constr:    0.0000
     atom:   28    charge:    7.0284    magn:    0.1548    constr:    0.0000
     atom:   29    charge:    1.8173    magn:    0.0796    constr:    0.0000
     atom:   30    charge:    1.7108    magn:    0.0132    constr:    0.0000
     atom:   31    charge:    1.7130    magn:    0.0072    constr:    0.0000
     atom:   32    charge:    1.7153    magn:    0.0017    constr:    0.0000
     atom:   33    charge:    1.7170    magn:    0.0000    constr:    0.0000
     atom:   34    charge:    1.7152    magn:    0.0000    constr:    0.0000
     atom:   35    charge:    1.7170    magn:    0.0000    constr:    0.0000
     atom:   36    charge:    1.7146    magn:   -0.0001    constr:    0.0000
     atom:   37    charge:    1.7214    magn:    0.0030    constr:    0.0000
     atom:   38    charge:    1.7108    magn:    0.0132    constr:    0.0000
     atom:   39    charge:    1.8173    magn:    0.0796    constr:    0.0000
     atom:   40    charge:    1.7108    magn:    0.0132    constr:    0.0000
     atom:   41    charge:    1.7214    magn:    0.0030    constr:    0.0000
     atom:   42    charge:    1.7146    magn:   -0.0001    constr:    0.0000
     atom:   43    charge:    1.7169    magn:    0.0000    constr:    0.0000
     atom:   44    charge:    1.7153    magn:    0.0000    constr:    0.0000
     atom:   45    charge:    1.7211    magn:   -0.0007    constr:    0.0000
     atom:   46    charge:    1.7152    magn:    0.0000    constr:    0.0000
     atom:   47    charge:    1.7170    magn:    0.0000    constr:    0.0000
     atom:   48    charge:    1.7153    magn:    0.0017    constr:    0.0000
     atom:   49    charge:    1.7130    magn:    0.0072    constr:    0.0000
     atom:   50    charge:    1.7169    magn:   -0.0010    constr:    0.0000
     atom:   51    charge:    1.7130    magn:    0.0072    constr:    0.0000
     atom:   52    charge:    1.7153    magn:    0.0017    constr:    0.0000

     total cpu time spent up to now is     2576.9 secs

     End of self-consistent calculation

 ------ SPIN UP ------------


          k = 0.0000 0.0000 0.0000 ( 87777 PWs)   bands (ev):

   -19.8481 -19.0060 -19.0060 -18.9107 -18.9104 -18.8487 -18.7729 -17.1767
   -17.1764 -17.1390 -17.0953 -17.0948 -16.8166 -16.3358 -16.3357 -16.1900
   -16.1898 -16.1677 -15.7765 -14.4329 -14.4326 -14.1370 -14.0413 -14.0410
   -13.5842 -13.1739 -13.1739 -13.0871 -12.9447 -12.9445 -12.6395 -12.3249
   -12.3246 -11.7216 -11.6159 -11.6158 -11.1947 -10.9461 -10.9459  -9.5322
    -9.3715  -9.3713  -9.2500  -9.2403  -9.2402  -9.2309  -9.1194  -9.1193
    -9.0683  -9.0683  -8.9692  -8.7245  -8.7245  -7.9639  -7.9038  -7.8463
    -7.6712  -7.6711  -7.5413  -7.5413  -6.9466  -6.8483  -6.8482  -6.8252
    -6.7965  -6.7237  -6.7221  -6.7188  -6.6260  -6.6256  -6.5811  -6.5745
    -6.5745  -6.5441  -6.5287  -6.4054  -6.4053  -5.6203  -5.6203  -5.0358
    -5.0243  -4.9638  -4.8929  -4.8927  -4.7692  -4.7326  -4.7320  -4.5482
    -4.5479  -4.4765  -3.8588  -3.8586  -3.8252  -3.8251  -3.7894  -3.6470
    -3.6467  -3.4146  -1.8902  -1.8335  -1.8330  -1.7407  -1.7400  -1.2298
    -0.8467  -0.8467   0.9043   0.9408   0.9415   1.0878   1.0880   1.4906
     2.4739   2.7867   2.7875   2.8313   2.9242   2.9246   3.3752   3.6000
     3.6121   3.7251   3.7311   3.7501   3.7581   3.8693

     occupation numbers 
     1.0000   1.0000   1.0000   1.0000   1.0000   1.0000   1.0000   1.0000
     1.0000   1.0000   1.0000   1.0000   1.0000   1.0000   1.0000   1.0000
     1.0000   1.0000   1.0000   1.0000   1.0000   1.0000   1.0000   1.0000
     1.0000   1.0000   1.0000   1.0000   1.0000   1.0000   1.0000   1.0000
     1.0000   1.0000   1.0000   1.0000   1.0000   1.0000   1.0000   1.0000
     1.0000   1.0000   1.0000   1.0000   1.0000   1.0000   1.0000   1.0000
     1.0000   1.0000   1.0000   1.0000   1.0000   1.0000   1.0000   1.0000
     1.0000   1.0000   1.0000   1.0000   1.0000   1.0000   1.0000   1.0000
     1.0000   1.0000   1.0000   1.0000   1.0000   1.0000   1.0000   1.0000
     1.0000   1.0000   1.0000   1.0000   1.0000   1.0000   1.0000   1.0000
     1.0000   1.0000   1.0000   1.0000   1.0000   1.0000   1.0000   1.0000
     1.0000   1.0000   1.0000   1.0000   1.0000   1.0000   1.0000   1.0000
     1.0000   1.0000   1.0000   1.0000   1.0000   1.0000   1.0000   1.0000
     0.5002   0.4998   0.0000   0.0000   0.0000   0.0000   0.0000   0.0000
     0.0000   0.0000   0.0000   0.0000   0.0000   0.0000   0.0000   0.0000
     0.0000   0.0000   0.0000   0.0000   0.0000   0.0000

 ------ SPIN DOWN ----------


          k = 0.0000 0.0000 0.0000 ( 87777 PWs)   bands (ev):

   -19.8230 -18.9735 -18.9735 -18.9039 -18.9036 -18.8456 -18.6975 -17.1370
   -17.1368 -17.1230 -17.0734 -17.0730 -16.7831 -16.2985 -16.2983 -16.1684
   -16.1682 -16.1608 -15.7009 -14.3428 -14.3424 -14.1128 -14.0332 -14.0328
   -13.5418 -13.1485 -13.1484 -13.0742 -12.9080 -12.9078 -12.5747 -12.2136
   -12.2133 -11.7019 -11.5813 -11.5812 -11.0894 -10.8160 -10.8159  -9.4912
    -9.3520  -9.3518  -9.2424  -9.2315  -9.2314  -9.2186  -9.0118  -9.0118
    -8.9475  -8.9474  -8.8444  -8.6831  -8.6830  -7.9537  -7.8795  -7.8245
    -7.6223  -7.6223  -7.5237  -7.5236  -6.8967  -6.8472  -6.8471  -6.7960
    -6.7846  -6.7102  -6.7090  -6.6821  -6.6041  -6.6036  -6.5734  -6.5706
    -6.5705  -6.5438  -6.5226  -6.3646  -6.3644  -5.5928  -5.5927  -5.0168
    -4.9539  -4.8730  -4.8728  -4.8107  -4.7643  -4.7316  -4.7309  -4.5385
    -4.5382  -4.4603  -3.8547  -3.8545  -3.7997  -3.7997  -3.7903  -3.6286
    -3.6283  -3.3766  -1.8864  -1.8314  -1.8309  -1.7186  -1.7179  -1.1935
    -0.4449  -0.4448   0.9074   0.9441   0.9448   1.1111   1.1112   1.5028
     2.4752   2.7888   2.7896   2.8324   2.9515   2.9520   3.3833   3.6008
     3.6147   3.7248   3.7306   3.7489   3.7639   3.8793

     occupation numbers 
     1.0000   1.0000   1.0000   1.0000   1.0000   1.0000   1.0000   1.0000
     1.0000   1.0000   1.0000   1.0000   1.0000   1.0000   1.0000   1.0000
     1.0000   1.0000   1.0000   1.0000   1.0000   1.0000   1.0000   1.0000
     1.0000   1.0000   1.0000   1.0000   1.0000   1.0000   1.0000   1.0000
     1.0000   1.0000   1.0000   1.0000   1.0000   1.0000   1.0000   1.0000
     1.0000   1.0000   1.0000   1.0000   1.0000   1.0000   1.0000   1.0000
     1.0000   1.0000   1.0000   1.0000   1.0000   1.0000   1.0000   1.0000
     1.0000   1.0000   1.0000   1.0000   1.0000   1.0000   1.0000   1.0000
     1.0000   1.0000   1.0000   1.0000   1.0000   1.0000   1.0000   1.0000
     1.0000   1.0000   1.0000   1.0000   1.0000   1.0000   1.0000   1.0000
     1.0000   1.0000   1.0000   1.0000   1.0000   1.0000   1.0000   1.0000
     1.0000   1.0000   1.0000   1.0000   1.0000   1.0000   1.0000   1.0000
     1.0000   1.0000   1.0000   1.0000   1.0000   1.0000   1.0000   1.0000
     0.0000   0.0000   0.0000   0.0000   0.0000   0.0000   0.0000   0.0000
     0.0000   0.0000   0.0000   0.0000   0.0000   0.0000   0.0000   0.0000
     0.0000   0.0000   0.0000   0.0000   0.0000   0.0000

     the Fermi energy is    -0.8448 ev

!    total energy              =    -734.75815313 Ry
     Harris-Foulkes estimate   =    -734.75815315 Ry
     estimated scf accuracy    <       0.00000004 Ry

     The total energy is the sum of the following terms:

     one-electron contribution =   -2474.83785884 Ry
     hartree contribution      =    1293.09570732 Ry
     xc contribution           =    -275.91904516 Ry
     ewald contribution        =     722.90337174 Ry
     smearing contrib. (-TS)   =      -0.00032818 Ry

     total magnetization       =     1.00 Bohr mag/cell
     absolute magnetization    =     1.07 Bohr mag/cell

     convergence has been achieved in  24 iterations

     Writing output data file cobre-sixhollow-5.0.save/

     init_run     :     76.27s CPU     77.56s WALL (       1 calls)
     electrons    :   2453.70s CPU   2498.45s WALL (       1 calls)

     Called by init_run:
     wfcinit      :     41.43s CPU     41.70s WALL (       1 calls)
     wfcinit:atom :      0.05s CPU      0.09s WALL (       2 calls)
     wfcinit:wfcr :     41.02s CPU     41.21s WALL (       2 calls)
     potinit      :     14.29s CPU     14.74s WALL (       1 calls)
     hinit0       :     11.91s CPU     11.95s WALL (       1 calls)

     Called by electrons:
     c_bands      :   1526.72s CPU   1534.43s WALL (      24 calls)
     sum_band     :    538.86s CPU    553.95s WALL (      24 calls)
     v_of_rho     :    187.91s CPU    197.53s WALL (      25 calls)
     v_h          :      2.04s CPU      2.09s WALL (      25 calls)
     v_xc         :    185.87s CPU    195.44s WALL (      25 calls)
     newd         :    197.37s CPU    210.25s WALL (      25 calls)
     mix_rho      :     11.27s CPU     11.44s WALL (      24 calls)

     Called by c_bands:
     init_us_2    :      4.73s CPU      4.77s WALL (      98 calls)
     cegterg      :   1515.58s CPU   1523.24s WALL (      48 calls)

     Called by sum_band:
     sum_band:bec :      0.04s CPU      0.04s WALL (      48 calls)
     addusdens    :    343.02s CPU    356.85s WALL (      24 calls)

     Called by *egterg:
     h_psi        :    805.44s CPU    810.70s WALL (     176 calls)
     s_psi        :    271.00s CPU    271.09s WALL (     176 calls)
     g_psi        :      0.80s CPU      0.81s WALL (     126 calls)
     cdiaghg      :     10.95s CPU     10.95s WALL (     174 calls)
     cegterg:over :    186.43s CPU    186.53s WALL (     126 calls)
     cegterg:upda :    108.95s CPU    109.57s WALL (     126 calls)
     cegterg:last :     82.97s CPU     83.01s WALL (      48 calls)

     Called by h_psi:
     h_psi:pot    :    804.51s CPU    808.71s WALL (     176 calls)
     h_psi:calbec :    270.90s CPU    271.03s WALL (     176 calls)
     vloc_psi     :    261.73s CPU    265.75s WALL (     176 calls)
     add_vuspsi   :    271.87s CPU    271.94s WALL (     176 calls)

     General routines
     calbec       :    390.17s CPU    390.35s WALL (     224 calls)
     fft          :    108.89s CPU    112.65s WALL (    1869 calls)
     ffts         :      1.89s CPU      1.97s WALL (      98 calls)
     fftw         :    279.24s CPU    283.68s WALL (   33724 calls)
     interpolate  :      4.48s CPU      4.59s WALL (      50 calls)

     Parallel routines
     fft_scatt_xy :     71.48s CPU     72.29s WALL (   35691 calls)
     fft_scatt_yz :    127.81s CPU    133.66s WALL (   35691 calls)

     PWSCF        :  42m11.26s CPU  42m57.65s WALL


   This run was terminated on:  11:22:26   6Sep2022            

=------------------------------------------------------------------------------=
   JOB DONE.
=------------------------------------------------------------------------------=
