
     Program PWSCF v.6.4.1 starts on  6Sep2022 at 16:23:42 

     This program is part of the open-source Quantum ESPRESSO suite
     for quantum simulation of materials; please cite
         "P. Giannozzi et al., J. Phys.:Condens. Matter 21 395502 (2009);
         "P. Giannozzi et al., J. Phys.:Condens. Matter 29 465901 (2017);
          URL http://www.quantum-espresso.org", 
     in publications or presentations arising from this work. More details at
     http://www.quantum-espresso.org/quote

     Parallel version (MPI), running on     6 processors

     MPI processes distributed on     1 nodes
     R & G space division:  proc/nbgrp/npool/nimage =       6
     Reading input from distance-2.2.in

     Current dimensions of program PWSCF are:
     Max number of different atomic species (ntypx) = 10
     Max number of k-points (npk) =  40000
     Max angular momentum in pseudopotentials (lmaxx) =  3

     IMPORTANT: XC functional enforced from input :
     Exchange-correlation      = RVV10 ( 1  4 13  4 3 0)
     Any further DFT definition will be discarded
     Please, verify this is what you really want

               file H.pbe-rrkjus.UPF: wavefunction(s)  1S renormalized
               file Cu.pbe-dn-rrkjus_psl.1.0.0.UPF: wavefunction(s)  3D renormalized

     Subspace diagonalization in iterative solution of the eigenvalue problem:
     a serial algorithm will be used


     Parallelization info
     --------------------
     sticks:   dense  smooth     PW     G-vecs:    dense   smooth      PW
     Min        3051    1746    432               270999   117096   14629
     Max        3053    1747    437               271001   117099   14630
     Sum       18313   10477   2611              1626001   702581   87777



     bravais-lattice index     =            4
     lattice parameter (alat)  =      23.2937  a.u.
     unit-cell volume          =    8879.8548 (a.u.)^3
     number of atoms/cell      =           52
     number of atomic types    =            3
     number of electrons       =       209.00
     number of Kohn-Sham states=          126
     kinetic-energy cutoff     =      70.0000  Ry
     charge density cutoff     =     490.0000  Ry
     convergence threshold     =      1.0E-06
     mixing beta               =       0.7000
     number of iterations used =            8  plain     mixing
     Exchange-correlation      = RVV10 ( 1  4 13  4 3 0)

     celldm(1)=  23.293684  celldm(2)=   0.000000  celldm(3)=   0.811261
     celldm(4)=   0.000000  celldm(5)=   0.000000  celldm(6)=   0.000000

     crystal axes: (cart. coord. in units of alat)
               a(1) = (   1.000000   0.000000   0.000000 )  
               a(2) = (  -0.500000   0.866025   0.000000 )  
               a(3) = (   0.000000   0.000000   0.811261 )  

     reciprocal axes: (cart. coord. in units 2 pi/alat)
               b(1) = (  1.000000  0.577350 -0.000000 )  
               b(2) = (  0.000000  1.154701  0.000000 )  
               b(3) = (  0.000000 -0.000000  1.232649 )  


     PseudoPot. # 1 for H  read from file:
     /home/cristian/Escritorio/Proyecto_Grafeno/pseudopotenciales/H.pbe-rrkjus.UPF
     MD5 check sum: 7cc9d459525c9a0585f487a71c3c9563
     Pseudo is Ultrasoft, Zval =  1.0
     Generated by new atomic code, or converted to UPF format
     Using radial grid of 1061 points,  2 beta functions with: 
                l(1) =   0
                l(2) =   0
     Q(r) pseudized with 0 coefficients 


     PseudoPot. # 2 for C  read from file:
     /home/cristian/Escritorio/Proyecto_Grafeno/pseudopotenciales/C.pbe-n-rrkjus_psl.1.0.0.UPF
     MD5 check sum: 1fdd950c42eb37d8afe3dd2f8d12311e
     Pseudo is Ultrasoft + core correction, Zval =  4.0
     Generated using "atomic" code by A. Dal Corso v.6.3MaX
     Using radial grid of 1073 points,  4 beta functions with: 
                l(1) =   0
                l(2) =   0
                l(3) =   1
                l(4) =   1
     Q(r) pseudized with 0 coefficients 


     PseudoPot. # 3 for Cu read from file:
     /home/cristian/Escritorio/Proyecto_Grafeno/pseudopotenciales/Cu.pbe-dn-rrkjus_psl.1.0.0.UPF
     MD5 check sum: ba3d6c84e19846e79d48cdc68ff7152b
     Pseudo is Ultrasoft + core correction, Zval = 11.0
     Generated using "atomic" code by A. Dal Corso v.6.3
     Using radial grid of 1199 points,  6 beta functions with: 
                l(1) =   0
                l(2) =   0
                l(3) =   1
                l(4) =   1
                l(5) =   2
                l(6) =   2
     Q(r) pseudized with 0 coefficients 


     vdW kernel table read from file rVV10_kernel_table
     MD5 check sum: b8e2538accc0c0b3206b45ba4daaba6c

     atomic species   valence    mass     pseudopotential
        H              1.00     1.00794     H ( 1.00)
        C              4.00    12.01070     C ( 1.00)
        Cu            11.00    63.54600     Cu( 1.00)

     Starting magnetic structure 
     atomic species   magnetization
        H            0.500
        C            0.300
        Cu           0.800

      2 Sym. Ops. (no inversion) found


                                    s                        frac. trans.

      isym =  1     identity                                     

 cryst.   s( 1) = (     1          0          0      )
                  (     0          1          0      )
                  (     0          0          1      )

 cart.    s( 1) = (  1.0000000  0.0000000  0.0000000 )
                  (  0.0000000  1.0000000  0.0000000 )
                  (  0.0000000  0.0000000  1.0000000 )


      isym =  2     inv. 180 deg rotation - cryst. axis [1,1,0]  

 cryst.   s( 2) = (     0         -1          0      )
                  (    -1          0          0      )
                  (     0          0          1      )

 cart.    s( 2) = (  0.5000000 -0.8660254  0.0000000 )
                  ( -0.8660254 -0.5000000  0.0000000 )
                  (  0.0000000  0.0000000  1.0000000 )


     point group C_s (m)    
     there are  2 classes
     the character table:

       E     s    
A'     1.00  1.00
A''    1.00 -1.00

     the symmetry operations in each class and the name of the first element:

     E        1
          identity                                               
     s        2
          inv. 180 deg rotation - cryst. axis [1,1,0]            

   Cartesian axes

     site n.     atom                  positions (alat units)
         1           H   tau(   1) = (   0.3000000   0.4041452   0.1784775  )
         2           H   tau(   2) = (   0.3000000   0.4041452   0.2394901  )
         3           C   tau(   3) = (   0.0000000   0.0000000   0.0000000  )
         4           C   tau(   4) = (   0.0000000   0.1154701   0.0000000  )
         5           C   tau(   5) = (  -0.1000000   0.1732051   0.0000000  )
         6           C   tau(   6) = (  -0.1000000   0.2886751   0.0000000  )
         7           C   tau(   7) = (  -0.2000000   0.3464102   0.0000000  )
         8           C   tau(   8) = (  -0.2000000   0.4618802   0.0000000  )
         9           C   tau(   9) = (  -0.3000000   0.5196152   0.0000000  )
        10           C   tau(  10) = (  -0.3000000   0.6350853   0.0000000  )
        11           C   tau(  11) = (  -0.4000000   0.6928203   0.0000000  )
        12           C   tau(  12) = (  -0.4000000   0.8082904   0.0000000  )
        13           C   tau(  13) = (   0.2000000   0.0000000   0.0000000  )
        14           C   tau(  14) = (   0.2000000   0.1154701   0.0000000  )
        15           C   tau(  15) = (   0.1000000   0.1732051   0.0000000  )
        16           C   tau(  16) = (   0.1000000   0.2886751   0.0000000  )
        17           C   tau(  17) = (   0.0000000   0.3464102   0.0000000  )
        18           C   tau(  18) = (   0.0000000   0.4618802   0.0000000  )
        19           C   tau(  19) = (  -0.1000000   0.5196152   0.0000000  )
        20           C   tau(  20) = (  -0.1000000   0.6350853   0.0000000  )
        21           C   tau(  21) = (  -0.2000000   0.6928203   0.0000000  )
        22           C   tau(  22) = (  -0.2000000   0.8082904   0.0000000  )
        23           C   tau(  23) = (   0.4000000   0.0000000   0.0000000  )
        24           C   tau(  24) = (   0.4000000   0.1154701   0.0000000  )
        25           C   tau(  25) = (   0.3000000   0.1732051   0.0000000  )
        26           C   tau(  26) = (   0.3000000   0.2886751   0.0000000  )
        27           C   tau(  27) = (   0.2000000   0.3464102   0.0000000  )
        28           Cu  tau(  28) = (   0.2000000   0.4618802   0.0000000  )
        29           C   tau(  29) = (   0.1000000   0.5196152   0.0000000  )
        30           C   tau(  30) = (   0.1000000   0.6350853   0.0000000  )
        31           C   tau(  31) = (   0.0000000   0.6928203   0.0000000  )
        32           C   tau(  32) = (   0.0000000   0.8082904   0.0000000  )
        33           C   tau(  33) = (   0.6000000   0.0000000   0.0000000  )
        34           C   tau(  34) = (   0.6000000   0.1154701   0.0000000  )
        35           C   tau(  35) = (   0.5000000   0.1732051   0.0000000  )
        36           C   tau(  36) = (   0.5000000   0.2886751   0.0000000  )
        37           C   tau(  37) = (   0.4000000   0.3464102   0.0000000  )
        38           C   tau(  38) = (   0.4000000   0.4618802   0.0000000  )
        39           C   tau(  39) = (   0.3000000   0.5196152   0.0000000  )
        40           C   tau(  40) = (   0.3000000   0.6350853   0.0000000  )
        41           C   tau(  41) = (   0.2000000   0.6928203   0.0000000  )
        42           C   tau(  42) = (   0.2000000   0.8082904   0.0000000  )
        43           C   tau(  43) = (   0.8000000   0.0000000   0.0000000  )
        44           C   tau(  44) = (   0.8000000   0.1154701   0.0000000  )
        45           C   tau(  45) = (   0.7000000   0.1732051   0.0000000  )
        46           C   tau(  46) = (   0.7000000   0.2886751   0.0000000  )
        47           C   tau(  47) = (   0.6000000   0.3464102   0.0000000  )
        48           C   tau(  48) = (   0.6000000   0.4618802   0.0000000  )
        49           C   tau(  49) = (   0.5000000   0.5196152   0.0000000  )
        50           C   tau(  50) = (   0.5000000   0.6350853   0.0000000  )
        51           C   tau(  51) = (   0.4000000   0.6928203   0.0000000  )
        52           C   tau(  52) = (   0.4000000   0.8082904   0.0000000  )

   Crystallographic axes

     site n.     atom                  positions (cryst. coord.)
         1           H   tau(   1) = (  0.5333333  0.4666667  0.2200000  )
         2           H   tau(   2) = (  0.5333333  0.4666667  0.2952072  )
         3           C   tau(   3) = (  0.0000000  0.0000000  0.0000000  )
         4           C   tau(   4) = (  0.0666667  0.1333333  0.0000000  )
         5           C   tau(   5) = (  0.0000000  0.2000000  0.0000000  )
         6           C   tau(   6) = (  0.0666667  0.3333333  0.0000000  )
         7           C   tau(   7) = (  0.0000000  0.4000000  0.0000000  )
         8           C   tau(   8) = (  0.0666667  0.5333333  0.0000000  )
         9           C   tau(   9) = (  0.0000000  0.6000000  0.0000000  )
        10           C   tau(  10) = (  0.0666667  0.7333333  0.0000000  )
        11           C   tau(  11) = (  0.0000000  0.8000000  0.0000000  )
        12           C   tau(  12) = (  0.0666667  0.9333333  0.0000000  )
        13           C   tau(  13) = (  0.2000000  0.0000000  0.0000000  )
        14           C   tau(  14) = (  0.2666667  0.1333333  0.0000000  )
        15           C   tau(  15) = (  0.2000000  0.2000000  0.0000000  )
        16           C   tau(  16) = (  0.2666667  0.3333333  0.0000000  )
        17           C   tau(  17) = (  0.2000000  0.4000000  0.0000000  )
        18           C   tau(  18) = (  0.2666667  0.5333333  0.0000000  )
        19           C   tau(  19) = (  0.2000000  0.6000000  0.0000000  )
        20           C   tau(  20) = (  0.2666667  0.7333333  0.0000000  )
        21           C   tau(  21) = (  0.2000000  0.8000000  0.0000000  )
        22           C   tau(  22) = (  0.2666667  0.9333333  0.0000000  )
        23           C   tau(  23) = (  0.4000000  0.0000000  0.0000000  )
        24           C   tau(  24) = (  0.4666667  0.1333333  0.0000000  )
        25           C   tau(  25) = (  0.4000000  0.2000000  0.0000000  )
        26           C   tau(  26) = (  0.4666667  0.3333333  0.0000000  )
        27           C   tau(  27) = (  0.4000000  0.4000000  0.0000000  )
        28           Cu  tau(  28) = (  0.4666667  0.5333333  0.0000000  )
        29           C   tau(  29) = (  0.4000000  0.6000000  0.0000000  )
        30           C   tau(  30) = (  0.4666667  0.7333333  0.0000000  )
        31           C   tau(  31) = (  0.4000000  0.8000000  0.0000000  )
        32           C   tau(  32) = (  0.4666667  0.9333333  0.0000000  )
        33           C   tau(  33) = (  0.6000000  0.0000000  0.0000000  )
        34           C   tau(  34) = (  0.6666667  0.1333333  0.0000000  )
        35           C   tau(  35) = (  0.6000000  0.2000000  0.0000000  )
        36           C   tau(  36) = (  0.6666667  0.3333333  0.0000000  )
        37           C   tau(  37) = (  0.6000000  0.4000000  0.0000000  )
        38           C   tau(  38) = (  0.6666667  0.5333333  0.0000000  )
        39           C   tau(  39) = (  0.6000000  0.6000000  0.0000000  )
        40           C   tau(  40) = (  0.6666667  0.7333333  0.0000000  )
        41           C   tau(  41) = (  0.6000000  0.8000000  0.0000000  )
        42           C   tau(  42) = (  0.6666667  0.9333333  0.0000000  )
        43           C   tau(  43) = (  0.8000000  0.0000000  0.0000000  )
        44           C   tau(  44) = (  0.8666667  0.1333333  0.0000000  )
        45           C   tau(  45) = (  0.8000000  0.2000000  0.0000000  )
        46           C   tau(  46) = (  0.8666667  0.3333333  0.0000000  )
        47           C   tau(  47) = (  0.8000000  0.4000000  0.0000000  )
        48           C   tau(  48) = (  0.8666667  0.5333333  0.0000000  )
        49           C   tau(  49) = (  0.8000000  0.6000000  0.0000000  )
        50           C   tau(  50) = (  0.8666667  0.7333333  0.0000000  )
        51           C   tau(  51) = (  0.8000000  0.8000000  0.0000000  )
        52           C   tau(  52) = (  0.8666667  0.9333333  0.0000000  )

     number of k points=     1  Marzari-Vanderbilt smearing, width (Ry)=  0.0010
                       cart. coord. in units 2pi/alat
        k(    1) = (   0.0000000   0.0000000   0.0000000), wk =   1.0000000

                       cryst. coord.
        k(    1) = (   0.0000000   0.0000000   0.0000000), wk =   1.0000000

     Dense  grid:  1626001 G-vectors     FFT dimensions: ( 180, 180, 135)

     Smooth grid:   702581 G-vectors     FFT dimensions: ( 125, 125, 108)

     Dynamical RAM for                 wfc:      28.14 MB

     Dynamical RAM for     wfc (w. buffer):      84.42 MB

     Dynamical RAM for           str. fact:      12.41 MB

     Dynamical RAM for           local pot:       0.00 MB

     Dynamical RAM for          nlocal pot:      92.46 MB

     Dynamical RAM for                qrad:      19.73 MB

     Dynamical RAM for          rho,v,vnew:      58.92 MB

     Dynamical RAM for               rhoin:      19.64 MB

     Dynamical RAM for            rho*nmix:     132.32 MB

     Dynamical RAM for           G-vectors:      16.40 MB

     Dynamical RAM for          h,s,v(r/c):      11.63 MB

     Dynamical RAM for          <psi|beta>:       0.80 MB

     Dynamical RAM for                 psi:     112.56 MB

     Dynamical RAM for                hpsi:     112.56 MB

     Dynamical RAM for                spsi:     112.56 MB

     Dynamical RAM for      wfcinit/wfcrot:      93.45 MB

     Dynamical RAM for           addusdens:     975.89 MB

     Estimated static dynamical RAM per process >     486.96 MB

     Estimated max dynamical RAM per process >       1.43 GB

     Estimated total dynamical RAM >       8.57 GB
     Generating pointlists ...
     new r_m :   0.0252 (alat units)  0.5862 (a.u.) for type    1
     new r_m :   0.0476 (alat units)  1.1095 (a.u.) for type    2
     new r_m :   0.0476 (alat units)  1.1095 (a.u.) for type    3

     Check: negative core charge=   -0.000002

     Initial potential from superposition of free atoms

     starting charge  208.80532, renormalised to  209.00000

     negative rho (up, down):  6.554E-05 1.203E-02


---------------------------------------------------------------------------------
Carrying out rVV10 run using the following parameters:
Nqs =      20    Nr_points =    1024   r_max =   100.000
b_value =  6.30000    beta =  0.00901
     q_mesh =  0.00010000  0.00030000  0.00058939  0.00100810
               0.00161396  0.00249058  0.00375900  0.00559430
               0.00824984  0.01209221  0.01765183  0.02569619
               0.03733578  0.05417739  0.07854596  0.11380545
               0.16482331  0.23864234  0.34545298  0.50000000

Gradients computed in Reciprocal space

---------------------------------------------------------------------------------


     Starting wfcs are  207 randomized atomic wfcs

     total cpu time spent up to now is       78.5 secs

     Self-consistent Calculation

     iteration #  1     ecut=    70.00 Ry     beta= 0.70
     Davidson diagonalization with overlap
     ethr =  1.00E-02,  avg # of iterations =  4.5

     negative rho (up, down):  1.641E-04 1.233E-02

     total cpu time spent up to now is      216.2 secs

     total energy              =    -727.90904454 Ry
     Harris-Foulkes estimate   =    -734.87959534 Ry
     estimated scf accuracy    <      13.69137898 Ry

     total magnetization       =     6.90 Bohr mag/cell
     absolute magnetization    =     7.27 Bohr mag/cell

     iteration #  2     ecut=    70.00 Ry     beta= 0.70
     Davidson diagonalization with overlap
     ethr =  6.55E-03,  avg # of iterations =  3.5

     negative rho (up, down):  1.865E-04 1.077E-02

     total cpu time spent up to now is      348.3 secs

     total energy              =    -729.61833897 Ry
     Harris-Foulkes estimate   =    -743.61446214 Ry
     estimated scf accuracy    <      34.81080579 Ry

     total magnetization       =     2.99 Bohr mag/cell
     absolute magnetization    =     3.26 Bohr mag/cell

     iteration #  3     ecut=    70.00 Ry     beta= 0.70
     Davidson diagonalization with overlap
     ethr =  6.55E-03,  avg # of iterations =  4.5

     negative rho (up, down):  2.224E-04 8.711E-03

     total cpu time spent up to now is      457.1 secs

     total energy              =    -732.52511253 Ry
     Harris-Foulkes estimate   =    -735.75143332 Ry
     estimated scf accuracy    <       8.50141682 Ry

     total magnetization       =     1.00 Bohr mag/cell
     absolute magnetization    =     1.63 Bohr mag/cell

     iteration #  4     ecut=    70.00 Ry     beta= 0.70
     Davidson diagonalization with overlap
     ethr =  4.07E-03,  avg # of iterations =  3.0

     negative rho (up, down):  2.688E-04 7.642E-03

     total cpu time spent up to now is      571.2 secs

     total energy              =    -733.68178603 Ry
     Harris-Foulkes estimate   =    -735.21445147 Ry
     estimated scf accuracy    <       6.49128811 Ry

     total magnetization       =     3.00 Bohr mag/cell
     absolute magnetization    =     3.16 Bohr mag/cell

     iteration #  5     ecut=    70.00 Ry     beta= 0.70
     Davidson diagonalization with overlap
     ethr =  3.11E-03,  avg # of iterations =  3.0

     negative rho (up, down):  3.050E-04 9.733E-03

     total cpu time spent up to now is      674.6 secs

     total energy              =    -734.34423874 Ry
     Harris-Foulkes estimate   =    -735.07300946 Ry
     estimated scf accuracy    <       3.37516275 Ry

     total magnetization       =     1.00 Bohr mag/cell
     absolute magnetization    =     1.42 Bohr mag/cell

     iteration #  6     ecut=    70.00 Ry     beta= 0.70
     Davidson diagonalization with overlap
     ethr =  1.61E-03,  avg # of iterations =  2.5

     negative rho (up, down):  3.797E-04 1.426E-02

     total cpu time spent up to now is      772.8 secs

     total energy              =    -734.66869541 Ry
     Harris-Foulkes estimate   =    -734.79083567 Ry
     estimated scf accuracy    <       0.35191083 Ry

     total magnetization       =     1.00 Bohr mag/cell
     absolute magnetization    =     1.35 Bohr mag/cell

     iteration #  7     ecut=    70.00 Ry     beta= 0.70
     Davidson diagonalization with overlap
     ethr =  1.68E-04,  avg # of iterations =  5.0

     negative rho (up, down):  5.106E-04 1.015E-02

     total cpu time spent up to now is      891.2 secs

     total energy              =    -734.72553694 Ry
     Harris-Foulkes estimate   =    -734.78880777 Ry
     estimated scf accuracy    <       0.22226909 Ry

     total magnetization       =     1.00 Bohr mag/cell
     absolute magnetization    =     1.25 Bohr mag/cell

     iteration #  8     ecut=    70.00 Ry     beta= 0.70
     Davidson diagonalization with overlap
     ethr =  1.06E-04,  avg # of iterations =  8.0

     negative rho (up, down):  5.967E-04 4.119E-03

     total cpu time spent up to now is     1001.1 secs

     total energy              =    -734.74599331 Ry
     Harris-Foulkes estimate   =    -734.76371533 Ry
     estimated scf accuracy    <       0.06624138 Ry

     total magnetization       =     1.00 Bohr mag/cell
     absolute magnetization    =     1.21 Bohr mag/cell

     iteration #  9     ecut=    70.00 Ry     beta= 0.70
     Davidson diagonalization with overlap
     ethr =  3.17E-05,  avg # of iterations =  9.5

     negative rho (up, down):  6.357E-04 2.898E-03

     total cpu time spent up to now is     1106.1 secs

     total energy              =    -734.75411052 Ry
     Harris-Foulkes estimate   =    -734.75583571 Ry
     estimated scf accuracy    <       0.03317199 Ry

     total magnetization       =     1.00 Bohr mag/cell
     absolute magnetization    =     1.17 Bohr mag/cell

     iteration # 10     ecut=    70.00 Ry     beta= 0.70
     Davidson diagonalization with overlap
     ethr =  1.59E-05,  avg # of iterations =  1.5

     negative rho (up, down):  6.636E-04 2.604E-03

     total cpu time spent up to now is     1202.7 secs

     total energy              =    -734.75486132 Ry
     Harris-Foulkes estimate   =    -734.75529822 Ry
     estimated scf accuracy    <       0.00180887 Ry

     total magnetization       =     1.00 Bohr mag/cell
     absolute magnetization    =     1.14 Bohr mag/cell

     iteration # 11     ecut=    70.00 Ry     beta= 0.70
     Davidson diagonalization with overlap
     ethr =  8.65E-07,  avg # of iterations =  4.0

     negative rho (up, down):  6.669E-04 2.336E-03

     total cpu time spent up to now is     1321.9 secs

     total energy              =    -734.75525630 Ry
     Harris-Foulkes estimate   =    -734.75547475 Ry
     estimated scf accuracy    <       0.00093935 Ry

     total magnetization       =     1.00 Bohr mag/cell
     absolute magnetization    =     1.11 Bohr mag/cell

     iteration # 12     ecut=    70.00 Ry     beta= 0.70
     Davidson diagonalization with overlap
     ethr =  4.49E-07,  avg # of iterations =  2.0

     negative rho (up, down):  6.650E-04 2.131E-03

     total cpu time spent up to now is     1423.3 secs

     total energy              =    -734.75538468 Ry
     Harris-Foulkes estimate   =    -734.75544128 Ry
     estimated scf accuracy    <       0.00053846 Ry

     total magnetization       =     1.00 Bohr mag/cell
     absolute magnetization    =     1.10 Bohr mag/cell

     iteration # 13     ecut=    70.00 Ry     beta= 0.70
     Davidson diagonalization with overlap
     ethr =  2.58E-07,  avg # of iterations =  2.0

     negative rho (up, down):  6.559E-04 1.709E-03

     total cpu time spent up to now is     1525.3 secs

     total energy              =    -734.75544688 Ry
     Harris-Foulkes estimate   =    -734.75544064 Ry
     estimated scf accuracy    <       0.00018152 Ry

     total magnetization       =     1.00 Bohr mag/cell
     absolute magnetization    =     1.09 Bohr mag/cell

     iteration # 14     ecut=    70.00 Ry     beta= 0.70
     Davidson diagonalization with overlap
     ethr =  8.69E-08,  avg # of iterations =  1.0

     negative rho (up, down):  6.535E-04 1.727E-03

     total cpu time spent up to now is     1626.9 secs

     total energy              =    -734.75545050 Ry
     Harris-Foulkes estimate   =    -734.75545578 Ry
     estimated scf accuracy    <       0.00037542 Ry

     total magnetization       =     1.00 Bohr mag/cell
     absolute magnetization    =     1.08 Bohr mag/cell

     iteration # 15     ecut=    70.00 Ry     beta= 0.70
     Davidson diagonalization with overlap
     ethr =  8.69E-08,  avg # of iterations =  1.0

     negative rho (up, down):  6.529E-04 1.692E-03

     total cpu time spent up to now is     1725.9 secs

     total energy              =    -734.75545187 Ry
     Harris-Foulkes estimate   =    -734.75545641 Ry
     estimated scf accuracy    <       0.00007260 Ry

     total magnetization       =     1.00 Bohr mag/cell
     absolute magnetization    =     1.08 Bohr mag/cell

     iteration # 16     ecut=    70.00 Ry     beta= 0.70
     Davidson diagonalization with overlap
     ethr =  3.47E-08,  avg # of iterations =  2.0

     negative rho (up, down):  6.509E-04 1.700E-03

     total cpu time spent up to now is     1825.7 secs

     total energy              =    -734.75545557 Ry
     Harris-Foulkes estimate   =    -734.75545516 Ry
     estimated scf accuracy    <       0.00002340 Ry

     total magnetization       =     1.00 Bohr mag/cell
     absolute magnetization    =     1.07 Bohr mag/cell

     iteration # 17     ecut=    70.00 Ry     beta= 0.70
     Davidson diagonalization with overlap
     ethr =  1.12E-08,  avg # of iterations =  3.0

     negative rho (up, down):  6.503E-04 1.715E-03

     total cpu time spent up to now is     1935.6 secs

     total energy              =    -734.75545783 Ry
     Harris-Foulkes estimate   =    -734.75545726 Ry
     estimated scf accuracy    <       0.00001258 Ry

     total magnetization       =     1.00 Bohr mag/cell
     absolute magnetization    =     1.07 Bohr mag/cell

     iteration # 18     ecut=    70.00 Ry     beta= 0.70
     Davidson diagonalization with overlap
     ethr =  6.02E-09,  avg # of iterations =  2.0

     negative rho (up, down):  6.500E-04 1.727E-03

     total cpu time spent up to now is     2038.0 secs

     total energy              =    -734.75545832 Ry
     Harris-Foulkes estimate   =    -734.75545827 Ry
     estimated scf accuracy    <       0.00002602 Ry

     total magnetization       =     1.00 Bohr mag/cell
     absolute magnetization    =     1.07 Bohr mag/cell

     iteration # 19     ecut=    70.00 Ry     beta= 0.70
     Davidson diagonalization with overlap
     ethr =  6.02E-09,  avg # of iterations =  2.0

     negative rho (up, down):  6.503E-04 1.713E-03

     total cpu time spent up to now is     2140.1 secs

     total energy              =    -734.75545853 Ry
     Harris-Foulkes estimate   =    -734.75545862 Ry
     estimated scf accuracy    <       0.00001626 Ry

     total magnetization       =     1.00 Bohr mag/cell
     absolute magnetization    =     1.07 Bohr mag/cell

     iteration # 20     ecut=    70.00 Ry     beta= 0.70
     Davidson diagonalization with overlap
     ethr =  6.02E-09,  avg # of iterations =  1.5

     negative rho (up, down):  6.502E-04 1.720E-03

     total cpu time spent up to now is     2241.0 secs

     total energy              =    -734.75545900 Ry
     Harris-Foulkes estimate   =    -734.75545921 Ry
     estimated scf accuracy    <       0.00001548 Ry

     total magnetization       =     1.00 Bohr mag/cell
     absolute magnetization    =     1.06 Bohr mag/cell

     iteration # 21     ecut=    70.00 Ry     beta= 0.70
     Davidson diagonalization with overlap
     ethr =  6.02E-09,  avg # of iterations =  1.0

     negative rho (up, down):  6.503E-04 1.713E-03

     total cpu time spent up to now is     2343.4 secs

     total energy              =    -734.75545903 Ry
     Harris-Foulkes estimate   =    -734.75545916 Ry
     estimated scf accuracy    <       0.00000586 Ry

     total magnetization       =     1.00 Bohr mag/cell
     absolute magnetization    =     1.06 Bohr mag/cell

     iteration # 22     ecut=    70.00 Ry     beta= 0.70
     Davidson diagonalization with overlap
     ethr =  2.80E-09,  avg # of iterations =  1.5

     negative rho (up, down):  6.506E-04 1.704E-03

     total cpu time spent up to now is     2445.7 secs

     total energy              =    -734.75545916 Ry
     Harris-Foulkes estimate   =    -734.75545926 Ry
     estimated scf accuracy    <       0.00000227 Ry

     total magnetization       =     1.00 Bohr mag/cell
     absolute magnetization    =     1.06 Bohr mag/cell

     iteration # 23     ecut=    70.00 Ry     beta= 0.70
     Davidson diagonalization with overlap
     ethr =  1.09E-09,  avg # of iterations =  2.5

     negative rho (up, down):  6.505E-04 1.710E-03

     Magnetic moment per site:
     atom:    1    charge:    0.2121    magn:   -0.0000    constr:    0.0000
     atom:    2    charge:    0.2122    magn:    0.0001    constr:    0.0000
     atom:    3    charge:    1.7157    magn:    0.0015    constr:    0.0000
     atom:    4    charge:    1.7153    magn:    0.0016    constr:    0.0000
     atom:    5    charge:    1.7169    magn:   -0.0000    constr:    0.0000
     atom:    6    charge:    1.7146    magn:   -0.0000    constr:    0.0000
     atom:    7    charge:    1.7170    magn:    0.0000    constr:    0.0000
     atom:    8    charge:    1.7153    magn:    0.0018    constr:    0.0000
     atom:    9    charge:    1.7158    magn:    0.0017    constr:    0.0000
     atom:   10    charge:    1.7170    magn:   -0.0009    constr:    0.0000
     atom:   11    charge:    1.7160    magn:    0.0005    constr:    0.0000
     atom:   12    charge:    1.7170    magn:   -0.0009    constr:    0.0000
     atom:   13    charge:    1.7160    magn:    0.0005    constr:    0.0000
     atom:   14    charge:    1.7168    magn:   -0.0009    constr:    0.0000
     atom:   15    charge:    1.7128    magn:    0.0068    constr:    0.0000
     atom:   16    charge:    1.7106    magn:    0.0127    constr:    0.0000
     atom:   17    charge:    1.7214    magn:    0.0031    constr:    0.0000
     atom:   18    charge:    1.7106    magn:    0.0129    constr:    0.0000
     atom:   19    charge:    1.7131    magn:    0.0075    constr:    0.0000
     atom:   20    charge:    1.7168    magn:   -0.0010    constr:    0.0000
     atom:   21    charge:    1.7160    magn:    0.0006    constr:    0.0000
     atom:   22    charge:    1.7170    magn:   -0.0009    constr:    0.0000
     atom:   23    charge:    1.7158    magn:    0.0017    constr:    0.0000
     atom:   24    charge:    1.7153    magn:    0.0018    constr:    0.0000
     atom:   25    charge:    1.7129    magn:    0.0073    constr:    0.0000
     atom:   26    charge:    1.7115    magn:    0.0140    constr:    0.0000
     atom:   27    charge:    1.8173    magn:    0.0772    constr:    0.0000
     atom:   28    charge:    7.0288    magn:    0.1546    constr:    0.0000
     atom:   29    charge:    1.8185    magn:    0.0837    constr:    0.0000
     atom:   30    charge:    1.7106    magn:    0.0129    constr:    0.0000
     atom:   31    charge:    1.7131    magn:    0.0075    constr:    0.0000
     atom:   32    charge:    1.7153    magn:    0.0018    constr:    0.0000
     atom:   33    charge:    1.7170    magn:    0.0000    constr:    0.0000
     atom:   34    charge:    1.7153    magn:    0.0000    constr:    0.0000
     atom:   35    charge:    1.7169    magn:   -0.0000    constr:    0.0000
     atom:   36    charge:    1.7145    magn:   -0.0000    constr:    0.0000
     atom:   37    charge:    1.7215    magn:    0.0028    constr:    0.0000
     atom:   38    charge:    1.7115    magn:    0.0140    constr:    0.0000
     atom:   39    charge:    1.8173    magn:    0.0772    constr:    0.0000
     atom:   40    charge:    1.7106    magn:    0.0127    constr:    0.0000
     atom:   41    charge:    1.7214    magn:    0.0031    constr:    0.0000
     atom:   42    charge:    1.7146    magn:   -0.0000    constr:    0.0000
     atom:   43    charge:    1.7169    magn:   -0.0000    constr:    0.0000
     atom:   44    charge:    1.7153    magn:    0.0000    constr:    0.0000
     atom:   45    charge:    1.7210    magn:   -0.0007    constr:    0.0000
     atom:   46    charge:    1.7153    magn:    0.0000    constr:    0.0000
     atom:   47    charge:    1.7169    magn:   -0.0000    constr:    0.0000
     atom:   48    charge:    1.7153    magn:    0.0018    constr:    0.0000
     atom:   49    charge:    1.7129    magn:    0.0073    constr:    0.0000
     atom:   50    charge:    1.7168    magn:   -0.0009    constr:    0.0000
     atom:   51    charge:    1.7128    magn:    0.0068    constr:    0.0000
     atom:   52    charge:    1.7153    magn:    0.0016    constr:    0.0000

     total cpu time spent up to now is     2546.8 secs

     End of self-consistent calculation

 ------ SPIN UP ------------


          k = 0.0000 0.0000 0.0000 ( 87777 PWs)   bands (ev):

   -19.8533 -19.0110 -19.0106 -18.9165 -18.9141 -18.8537 -18.7801 -17.1819
   -17.1800 -17.1429 -17.1039 -17.0992 -16.8222 -16.3405 -16.3399 -16.1967
   -16.1946 -16.1723 -15.7822 -14.4379 -14.4374 -14.1415 -14.0456 -14.0452
   -13.5898 -13.1794 -13.1780 -13.0918 -12.9522 -12.9491 -12.6441 -12.3295
   -12.3284 -11.7272 -11.6221 -11.6205 -11.1989 -10.9505 -10.9493  -9.5373
    -9.3770  -9.3756  -9.2543  -9.2449  -9.2448  -9.2355  -9.1504  -9.1282
    -9.0743  -9.0722  -8.9742  -8.7294  -8.7289  -8.0137  -7.9082  -7.8563
    -7.6788  -7.6749  -7.5470  -7.5461  -7.1456  -6.9249  -6.8516  -6.8485
    -6.8296  -6.7920  -6.7265  -6.7253  -6.6308  -6.6299  -6.5858  -6.5792
    -6.5785  -6.5339  -6.4118  -6.4091  -6.2117  -5.6249  -5.6246  -5.0402
    -4.9901  -4.9683  -4.8981  -4.8971  -4.7730  -4.7361  -4.7224  -4.5538
    -4.5373  -4.4559  -3.8642  -3.8579  -3.8303  -3.8296  -3.7925  -3.6558
    -3.6385  -3.4078  -1.8963  -1.8375  -1.8370  -1.7515  -1.7448  -1.2409
    -0.8538  -0.8528   0.8971   0.9320   0.9373   1.0816   1.0819   1.4854
     2.4894   2.7767   2.7825   2.8235   2.9133   2.9176   3.3981   3.6198
     3.6379   3.7245   3.7307   3.7480   3.9108   4.2249

     occupation numbers 
     1.0000   1.0000   1.0000   1.0000   1.0000   1.0000   1.0000   1.0000
     1.0000   1.0000   1.0000   1.0000   1.0000   1.0000   1.0000   1.0000
     1.0000   1.0000   1.0000   1.0000   1.0000   1.0000   1.0000   1.0000
     1.0000   1.0000   1.0000   1.0000   1.0000   1.0000   1.0000   1.0000
     1.0000   1.0000   1.0000   1.0000   1.0000   1.0000   1.0000   1.0000
     1.0000   1.0000   1.0000   1.0000   1.0000   1.0000   1.0000   1.0000
     1.0000   1.0000   1.0000   1.0000   1.0000   1.0000   1.0000   1.0000
     1.0000   1.0000   1.0000   1.0000   1.0000   1.0000   1.0000   1.0000
     1.0000   1.0000   1.0000   1.0000   1.0000   1.0000   1.0000   1.0000
     1.0000   1.0000   1.0000   1.0000   1.0000   1.0000   1.0000   1.0000
     1.0000   1.0000   1.0000   1.0000   1.0000   1.0000   1.0000   1.0000
     1.0000   1.0000   1.0000   1.0000   1.0000   1.0000   1.0000   1.0000
     1.0000   1.0000   1.0000   1.0000   1.0000   1.0000   1.0000   1.0000
     0.5270   0.4730   0.0000   0.0000   0.0000   0.0000   0.0000   0.0000
     0.0000   0.0000   0.0000   0.0000   0.0000   0.0000   0.0000   0.0000
     0.0000   0.0000   0.0000   0.0000   0.0000   0.0000

 ------ SPIN DOWN ----------


          k = 0.0000 0.0000 0.0000 ( 87777 PWs)   bands (ev):

   -19.8281 -18.9789 -18.9775 -18.9098 -18.9072 -18.8503 -18.7051 -17.1418
   -17.1410 -17.1269 -17.0808 -17.0784 -16.7887 -16.3030 -16.3029 -16.1746
   -16.1737 -16.1653 -15.7069 -14.3489 -14.3466 -14.1173 -14.0374 -14.0371
   -13.5475 -13.1542 -13.1525 -13.0788 -12.9145 -12.9133 -12.5795 -12.2187
   -12.2173 -11.7075 -11.5869 -11.5866 -11.0940 -10.8207 -10.8193  -9.4964
    -9.3572  -9.3564  -9.2467  -9.2361  -9.2361  -9.2232  -9.0199  -9.0163
    -8.9766  -8.9592  -8.8494  -8.6882  -8.6872  -8.0002  -7.8840  -7.8345
    -7.6299  -7.6263  -7.5294  -7.5288  -7.1210  -6.8814  -6.8504  -6.8439
    -6.7928  -6.7891  -6.7136  -6.7073  -6.6090  -6.6078  -6.5781  -6.5752
    -6.5745  -6.5276  -6.3711  -6.3683  -6.1950  -5.5979  -5.5965  -5.0211
    -4.9585  -4.8783  -4.8772  -4.7912  -4.7682  -4.7349  -4.7127  -4.5441
    -4.5266  -4.4395  -3.8598  -3.8533  -3.8045  -3.8045  -3.7932  -3.6378
    -3.6202  -3.3686  -1.8925  -1.8353  -1.8349  -1.7300  -1.7224  -1.2045
    -0.4633  -0.4420   0.9002   0.9353   0.9408   1.1042   1.1058   1.4976
     2.4899   2.7790   2.7845   2.8244   2.9406   2.9444   3.4074   3.6210
     3.6415   3.7239   3.7301   3.7469   3.9162   4.2249

     occupation numbers 
     1.0000   1.0000   1.0000   1.0000   1.0000   1.0000   1.0000   1.0000
     1.0000   1.0000   1.0000   1.0000   1.0000   1.0000   1.0000   1.0000
     1.0000   1.0000   1.0000   1.0000   1.0000   1.0000   1.0000   1.0000
     1.0000   1.0000   1.0000   1.0000   1.0000   1.0000   1.0000   1.0000
     1.0000   1.0000   1.0000   1.0000   1.0000   1.0000   1.0000   1.0000
     1.0000   1.0000   1.0000   1.0000   1.0000   1.0000   1.0000   1.0000
     1.0000   1.0000   1.0000   1.0000   1.0000   1.0000   1.0000   1.0000
     1.0000   1.0000   1.0000   1.0000   1.0000   1.0000   1.0000   1.0000
     1.0000   1.0000   1.0000   1.0000   1.0000   1.0000   1.0000   1.0000
     1.0000   1.0000   1.0000   1.0000   1.0000   1.0000   1.0000   1.0000
     1.0000   1.0000   1.0000   1.0000   1.0000   1.0000   1.0000   1.0000
     1.0000   1.0000   1.0000   1.0000   1.0000   1.0000   1.0000   1.0000
     1.0000   1.0000   1.0000   1.0000   1.0000   1.0000   1.0000   1.0000
     0.0000   0.0000   0.0000   0.0000   0.0000   0.0000   0.0000   0.0000
     0.0000   0.0000   0.0000   0.0000   0.0000   0.0000   0.0000   0.0000
     0.0000   0.0000   0.0000   0.0000   0.0000   0.0000

     the Fermi energy is    -0.8514 ev

!    total energy              =    -734.75545904 Ry
     Harris-Foulkes estimate   =    -734.75545935 Ry
     estimated scf accuracy    <       0.00000070 Ry

     The total energy is the sum of the following terms:

     one-electron contribution =   -2500.63695259 Ry
     hartree contribution      =    1305.97793461 Ry
     xc contribution           =    -275.94999181 Ry
     ewald contribution        =     735.85387795 Ry
     smearing contrib. (-TS)   =      -0.00032719 Ry

     total magnetization       =     1.00 Bohr mag/cell
     absolute magnetization    =     1.06 Bohr mag/cell

     convergence has been achieved in  23 iterations

     Writing output data file cobre-sixhollow-2.2.save/

     init_run     :     75.97s CPU     77.39s WALL (       1 calls)
     electrons    :   2426.29s CPU   2468.47s WALL (       1 calls)

     Called by init_run:
     wfcinit      :     45.38s CPU     45.73s WALL (       1 calls)
     wfcinit:atom :      0.05s CPU      0.10s WALL (       2 calls)
     wfcinit:wfcr :     44.95s CPU     45.20s WALL (       2 calls)
     potinit      :     12.71s CPU     13.24s WALL (       1 calls)
     hinit0       :      8.74s CPU      8.75s WALL (       1 calls)

     Called by electrons:
     c_bands      :   1519.81s CPU   1527.25s WALL (      23 calls)
     sum_band     :    529.61s CPU    543.50s WALL (      23 calls)
     v_of_rho     :    185.09s CPU    193.79s WALL (      24 calls)
     v_h          :      1.95s CPU      2.01s WALL (      24 calls)
     v_xc         :    183.13s CPU    191.77s WALL (      24 calls)
     newd         :    189.98s CPU    202.73s WALL (      24 calls)
     mix_rho      :     11.10s CPU     11.30s WALL (      23 calls)

     Called by c_bands:
     init_us_2    :      4.66s CPU      4.71s WALL (      94 calls)
     cegterg      :   1508.60s CPU   1516.00s WALL (      46 calls)

     Called by sum_band:
     sum_band:bec :      0.04s CPU      0.04s WALL (      46 calls)
     addusdens    :    332.82s CPU    345.51s WALL (      23 calls)

     Called by *egterg:
     h_psi        :    811.65s CPU    816.83s WALL (     189 calls)
     s_psi        :    272.80s CPU    272.93s WALL (     189 calls)
     g_psi        :      0.80s CPU      0.80s WALL (     141 calls)
     cdiaghg      :     12.10s CPU     12.12s WALL (     187 calls)
     cegterg:over :    179.86s CPU    179.92s WALL (     141 calls)
     cegterg:upda :    106.59s CPU    107.25s WALL (     141 calls)
     cegterg:last :     81.35s CPU     81.39s WALL (      46 calls)

     Called by h_psi:
     h_psi:pot    :    810.82s CPU    815.04s WALL (     189 calls)
     h_psi:calbec :    270.95s CPU    271.07s WALL (     189 calls)
     vloc_psi     :    267.26s CPU    271.27s WALL (     189 calls)
     add_vuspsi   :    272.61s CPU    272.71s WALL (     189 calls)

     General routines
     calbec       :    389.48s CPU    389.68s WALL (     235 calls)
     fft          :    106.39s CPU    109.83s WALL (    1794 calls)
     ffts         :      1.93s CPU      2.00s WALL (      94 calls)
     fftw         :    285.23s CPU    289.46s WALL (   32328 calls)
     interpolate  :      4.40s CPU      4.54s WALL (      48 calls)

     Parallel routines
     fft_scatt_xy :     74.39s CPU     75.10s WALL (   34216 calls)
     fft_scatt_yz :    124.67s CPU    130.50s WALL (   34216 calls)

     PWSCF        :  41m43.58s CPU  42m27.54s WALL


   This run was terminated on:  17: 6: 9   6Sep2022            

=------------------------------------------------------------------------------=
   JOB DONE.
=------------------------------------------------------------------------------=
