
     Program PWSCF v.6.4.1 starts on  6Sep2022 at 14:58:11 

     This program is part of the open-source Quantum ESPRESSO suite
     for quantum simulation of materials; please cite
         "P. Giannozzi et al., J. Phys.:Condens. Matter 21 395502 (2009);
         "P. Giannozzi et al., J. Phys.:Condens. Matter 29 465901 (2017);
          URL http://www.quantum-espresso.org", 
     in publications or presentations arising from this work. More details at
     http://www.quantum-espresso.org/quote

     Parallel version (MPI), running on     6 processors

     MPI processes distributed on     1 nodes
     R & G space division:  proc/nbgrp/npool/nimage =       6
     Reading input from distance-2.6.in

     Current dimensions of program PWSCF are:
     Max number of different atomic species (ntypx) = 10
     Max number of k-points (npk) =  40000
     Max angular momentum in pseudopotentials (lmaxx) =  3

     IMPORTANT: XC functional enforced from input :
     Exchange-correlation      = RVV10 ( 1  4 13  4 3 0)
     Any further DFT definition will be discarded
     Please, verify this is what you really want

               file H.pbe-rrkjus.UPF: wavefunction(s)  1S renormalized
               file Cu.pbe-dn-rrkjus_psl.1.0.0.UPF: wavefunction(s)  3D renormalized

     Subspace diagonalization in iterative solution of the eigenvalue problem:
     a serial algorithm will be used


     Parallelization info
     --------------------
     sticks:   dense  smooth     PW     G-vecs:    dense   smooth      PW
     Min        3051    1746    432               270999   117096   14629
     Max        3053    1747    437               271001   117099   14630
     Sum       18313   10477   2611              1626001   702581   87777



     bravais-lattice index     =            4
     lattice parameter (alat)  =      23.2937  a.u.
     unit-cell volume          =    8879.8548 (a.u.)^3
     number of atoms/cell      =           52
     number of atomic types    =            3
     number of electrons       =       209.00
     number of Kohn-Sham states=          126
     kinetic-energy cutoff     =      70.0000  Ry
     charge density cutoff     =     490.0000  Ry
     convergence threshold     =      1.0E-06
     mixing beta               =       0.7000
     number of iterations used =            8  plain     mixing
     Exchange-correlation      = RVV10 ( 1  4 13  4 3 0)

     celldm(1)=  23.293684  celldm(2)=   0.000000  celldm(3)=   0.811261
     celldm(4)=   0.000000  celldm(5)=   0.000000  celldm(6)=   0.000000

     crystal axes: (cart. coord. in units of alat)
               a(1) = (   1.000000   0.000000   0.000000 )  
               a(2) = (  -0.500000   0.866025   0.000000 )  
               a(3) = (   0.000000   0.000000   0.811261 )  

     reciprocal axes: (cart. coord. in units 2 pi/alat)
               b(1) = (  1.000000  0.577350 -0.000000 )  
               b(2) = (  0.000000  1.154701  0.000000 )  
               b(3) = (  0.000000 -0.000000  1.232649 )  


     PseudoPot. # 1 for H  read from file:
     /home/cristian/Escritorio/Proyecto_Grafeno/pseudopotenciales/H.pbe-rrkjus.UPF
     MD5 check sum: 7cc9d459525c9a0585f487a71c3c9563
     Pseudo is Ultrasoft, Zval =  1.0
     Generated by new atomic code, or converted to UPF format
     Using radial grid of 1061 points,  2 beta functions with: 
                l(1) =   0
                l(2) =   0
     Q(r) pseudized with 0 coefficients 


     PseudoPot. # 2 for C  read from file:
     /home/cristian/Escritorio/Proyecto_Grafeno/pseudopotenciales/C.pbe-n-rrkjus_psl.1.0.0.UPF
     MD5 check sum: 1fdd950c42eb37d8afe3dd2f8d12311e
     Pseudo is Ultrasoft + core correction, Zval =  4.0
     Generated using "atomic" code by A. Dal Corso v.6.3MaX
     Using radial grid of 1073 points,  4 beta functions with: 
                l(1) =   0
                l(2) =   0
                l(3) =   1
                l(4) =   1
     Q(r) pseudized with 0 coefficients 


     PseudoPot. # 3 for Cu read from file:
     /home/cristian/Escritorio/Proyecto_Grafeno/pseudopotenciales/Cu.pbe-dn-rrkjus_psl.1.0.0.UPF
     MD5 check sum: ba3d6c84e19846e79d48cdc68ff7152b
     Pseudo is Ultrasoft + core correction, Zval = 11.0
     Generated using "atomic" code by A. Dal Corso v.6.3
     Using radial grid of 1199 points,  6 beta functions with: 
                l(1) =   0
                l(2) =   0
                l(3) =   1
                l(4) =   1
                l(5) =   2
                l(6) =   2
     Q(r) pseudized with 0 coefficients 


     vdW kernel table read from file rVV10_kernel_table
     MD5 check sum: b8e2538accc0c0b3206b45ba4daaba6c

     atomic species   valence    mass     pseudopotential
        H              1.00     1.00794     H ( 1.00)
        C              4.00    12.01070     C ( 1.00)
        Cu            11.00    63.54600     Cu( 1.00)

     Starting magnetic structure 
     atomic species   magnetization
        H            0.500
        C            0.300
        Cu           0.800

      2 Sym. Ops. (no inversion) found


                                    s                        frac. trans.

      isym =  1     identity                                     

 cryst.   s( 1) = (     1          0          0      )
                  (     0          1          0      )
                  (     0          0          1      )

 cart.    s( 1) = (  1.0000000  0.0000000  0.0000000 )
                  (  0.0000000  1.0000000  0.0000000 )
                  (  0.0000000  0.0000000  1.0000000 )


      isym =  2     inv. 180 deg rotation - cryst. axis [1,1,0]  

 cryst.   s( 2) = (     0         -1          0      )
                  (    -1          0          0      )
                  (     0          0          1      )

 cart.    s( 2) = (  0.5000000 -0.8660254  0.0000000 )
                  ( -0.8660254 -0.5000000  0.0000000 )
                  (  0.0000000  0.0000000  1.0000000 )


     point group C_s (m)    
     there are  2 classes
     the character table:

       E     s    
A'     1.00  1.00
A''    1.00 -1.00

     the symmetry operations in each class and the name of the first element:

     E        1
          identity                                               
     s        2
          inv. 180 deg rotation - cryst. axis [1,1,0]            

   Cartesian axes

     site n.     atom                  positions (alat units)
         1           H   tau(   1) = (   0.3000000   0.4041452   0.2109279  )
         2           H   tau(   2) = (   0.3000000   0.4041452   0.2719406  )
         3           C   tau(   3) = (   0.0000000   0.0000000   0.0000000  )
         4           C   tau(   4) = (   0.0000000   0.1154701   0.0000000  )
         5           C   tau(   5) = (  -0.1000000   0.1732051   0.0000000  )
         6           C   tau(   6) = (  -0.1000000   0.2886751   0.0000000  )
         7           C   tau(   7) = (  -0.2000000   0.3464102   0.0000000  )
         8           C   tau(   8) = (  -0.2000000   0.4618802   0.0000000  )
         9           C   tau(   9) = (  -0.3000000   0.5196152   0.0000000  )
        10           C   tau(  10) = (  -0.3000000   0.6350853   0.0000000  )
        11           C   tau(  11) = (  -0.4000000   0.6928203   0.0000000  )
        12           C   tau(  12) = (  -0.4000000   0.8082904   0.0000000  )
        13           C   tau(  13) = (   0.2000000   0.0000000   0.0000000  )
        14           C   tau(  14) = (   0.2000000   0.1154701   0.0000000  )
        15           C   tau(  15) = (   0.1000000   0.1732051   0.0000000  )
        16           C   tau(  16) = (   0.1000000   0.2886751   0.0000000  )
        17           C   tau(  17) = (   0.0000000   0.3464102   0.0000000  )
        18           C   tau(  18) = (   0.0000000   0.4618802   0.0000000  )
        19           C   tau(  19) = (  -0.1000000   0.5196152   0.0000000  )
        20           C   tau(  20) = (  -0.1000000   0.6350853   0.0000000  )
        21           C   tau(  21) = (  -0.2000000   0.6928203   0.0000000  )
        22           C   tau(  22) = (  -0.2000000   0.8082904   0.0000000  )
        23           C   tau(  23) = (   0.4000000   0.0000000   0.0000000  )
        24           C   tau(  24) = (   0.4000000   0.1154701   0.0000000  )
        25           C   tau(  25) = (   0.3000000   0.1732051   0.0000000  )
        26           C   tau(  26) = (   0.3000000   0.2886751   0.0000000  )
        27           C   tau(  27) = (   0.2000000   0.3464102   0.0000000  )
        28           Cu  tau(  28) = (   0.2000000   0.4618802   0.0000000  )
        29           C   tau(  29) = (   0.1000000   0.5196152   0.0000000  )
        30           C   tau(  30) = (   0.1000000   0.6350853   0.0000000  )
        31           C   tau(  31) = (   0.0000000   0.6928203   0.0000000  )
        32           C   tau(  32) = (   0.0000000   0.8082904   0.0000000  )
        33           C   tau(  33) = (   0.6000000   0.0000000   0.0000000  )
        34           C   tau(  34) = (   0.6000000   0.1154701   0.0000000  )
        35           C   tau(  35) = (   0.5000000   0.1732051   0.0000000  )
        36           C   tau(  36) = (   0.5000000   0.2886751   0.0000000  )
        37           C   tau(  37) = (   0.4000000   0.3464102   0.0000000  )
        38           C   tau(  38) = (   0.4000000   0.4618802   0.0000000  )
        39           C   tau(  39) = (   0.3000000   0.5196152   0.0000000  )
        40           C   tau(  40) = (   0.3000000   0.6350853   0.0000000  )
        41           C   tau(  41) = (   0.2000000   0.6928203   0.0000000  )
        42           C   tau(  42) = (   0.2000000   0.8082904   0.0000000  )
        43           C   tau(  43) = (   0.8000000   0.0000000   0.0000000  )
        44           C   tau(  44) = (   0.8000000   0.1154701   0.0000000  )
        45           C   tau(  45) = (   0.7000000   0.1732051   0.0000000  )
        46           C   tau(  46) = (   0.7000000   0.2886751   0.0000000  )
        47           C   tau(  47) = (   0.6000000   0.3464102   0.0000000  )
        48           C   tau(  48) = (   0.6000000   0.4618802   0.0000000  )
        49           C   tau(  49) = (   0.5000000   0.5196152   0.0000000  )
        50           C   tau(  50) = (   0.5000000   0.6350853   0.0000000  )
        51           C   tau(  51) = (   0.4000000   0.6928203   0.0000000  )
        52           C   tau(  52) = (   0.4000000   0.8082904   0.0000000  )

   Crystallographic axes

     site n.     atom                  positions (cryst. coord.)
         1           H   tau(   1) = (  0.5333333  0.4666667  0.2600000  )
         2           H   tau(   2) = (  0.5333333  0.4666667  0.3352072  )
         3           C   tau(   3) = (  0.0000000  0.0000000  0.0000000  )
         4           C   tau(   4) = (  0.0666667  0.1333333  0.0000000  )
         5           C   tau(   5) = (  0.0000000  0.2000000  0.0000000  )
         6           C   tau(   6) = (  0.0666667  0.3333333  0.0000000  )
         7           C   tau(   7) = (  0.0000000  0.4000000  0.0000000  )
         8           C   tau(   8) = (  0.0666667  0.5333333  0.0000000  )
         9           C   tau(   9) = (  0.0000000  0.6000000  0.0000000  )
        10           C   tau(  10) = (  0.0666667  0.7333333  0.0000000  )
        11           C   tau(  11) = (  0.0000000  0.8000000  0.0000000  )
        12           C   tau(  12) = (  0.0666667  0.9333333  0.0000000  )
        13           C   tau(  13) = (  0.2000000  0.0000000  0.0000000  )
        14           C   tau(  14) = (  0.2666667  0.1333333  0.0000000  )
        15           C   tau(  15) = (  0.2000000  0.2000000  0.0000000  )
        16           C   tau(  16) = (  0.2666667  0.3333333  0.0000000  )
        17           C   tau(  17) = (  0.2000000  0.4000000  0.0000000  )
        18           C   tau(  18) = (  0.2666667  0.5333333  0.0000000  )
        19           C   tau(  19) = (  0.2000000  0.6000000  0.0000000  )
        20           C   tau(  20) = (  0.2666667  0.7333333  0.0000000  )
        21           C   tau(  21) = (  0.2000000  0.8000000  0.0000000  )
        22           C   tau(  22) = (  0.2666667  0.9333333  0.0000000  )
        23           C   tau(  23) = (  0.4000000  0.0000000  0.0000000  )
        24           C   tau(  24) = (  0.4666667  0.1333333  0.0000000  )
        25           C   tau(  25) = (  0.4000000  0.2000000  0.0000000  )
        26           C   tau(  26) = (  0.4666667  0.3333333  0.0000000  )
        27           C   tau(  27) = (  0.4000000  0.4000000  0.0000000  )
        28           Cu  tau(  28) = (  0.4666667  0.5333333  0.0000000  )
        29           C   tau(  29) = (  0.4000000  0.6000000  0.0000000  )
        30           C   tau(  30) = (  0.4666667  0.7333333  0.0000000  )
        31           C   tau(  31) = (  0.4000000  0.8000000  0.0000000  )
        32           C   tau(  32) = (  0.4666667  0.9333333  0.0000000  )
        33           C   tau(  33) = (  0.6000000  0.0000000  0.0000000  )
        34           C   tau(  34) = (  0.6666667  0.1333333  0.0000000  )
        35           C   tau(  35) = (  0.6000000  0.2000000  0.0000000  )
        36           C   tau(  36) = (  0.6666667  0.3333333  0.0000000  )
        37           C   tau(  37) = (  0.6000000  0.4000000  0.0000000  )
        38           C   tau(  38) = (  0.6666667  0.5333333  0.0000000  )
        39           C   tau(  39) = (  0.6000000  0.6000000  0.0000000  )
        40           C   tau(  40) = (  0.6666667  0.7333333  0.0000000  )
        41           C   tau(  41) = (  0.6000000  0.8000000  0.0000000  )
        42           C   tau(  42) = (  0.6666667  0.9333333  0.0000000  )
        43           C   tau(  43) = (  0.8000000  0.0000000  0.0000000  )
        44           C   tau(  44) = (  0.8666667  0.1333333  0.0000000  )
        45           C   tau(  45) = (  0.8000000  0.2000000  0.0000000  )
        46           C   tau(  46) = (  0.8666667  0.3333333  0.0000000  )
        47           C   tau(  47) = (  0.8000000  0.4000000  0.0000000  )
        48           C   tau(  48) = (  0.8666667  0.5333333  0.0000000  )
        49           C   tau(  49) = (  0.8000000  0.6000000  0.0000000  )
        50           C   tau(  50) = (  0.8666667  0.7333333  0.0000000  )
        51           C   tau(  51) = (  0.8000000  0.8000000  0.0000000  )
        52           C   tau(  52) = (  0.8666667  0.9333333  0.0000000  )

     number of k points=     1  Marzari-Vanderbilt smearing, width (Ry)=  0.0010
                       cart. coord. in units 2pi/alat
        k(    1) = (   0.0000000   0.0000000   0.0000000), wk =   1.0000000

                       cryst. coord.
        k(    1) = (   0.0000000   0.0000000   0.0000000), wk =   1.0000000

     Dense  grid:  1626001 G-vectors     FFT dimensions: ( 180, 180, 135)

     Smooth grid:   702581 G-vectors     FFT dimensions: ( 125, 125, 108)

     Dynamical RAM for                 wfc:      28.14 MB

     Dynamical RAM for     wfc (w. buffer):      84.42 MB

     Dynamical RAM for           str. fact:      12.41 MB

     Dynamical RAM for           local pot:       0.00 MB

     Dynamical RAM for          nlocal pot:      92.46 MB

     Dynamical RAM for                qrad:      19.73 MB

     Dynamical RAM for          rho,v,vnew:      58.92 MB

     Dynamical RAM for               rhoin:      19.64 MB

     Dynamical RAM for            rho*nmix:     132.32 MB

     Dynamical RAM for           G-vectors:      16.40 MB

     Dynamical RAM for          h,s,v(r/c):      11.63 MB

     Dynamical RAM for          <psi|beta>:       0.80 MB

     Dynamical RAM for                 psi:     112.56 MB

     Dynamical RAM for                hpsi:     112.56 MB

     Dynamical RAM for                spsi:     112.56 MB

     Dynamical RAM for      wfcinit/wfcrot:      93.45 MB

     Dynamical RAM for           addusdens:     975.89 MB

     Estimated static dynamical RAM per process >     486.96 MB

     Estimated max dynamical RAM per process >       1.43 GB

     Estimated total dynamical RAM >       8.57 GB
     Generating pointlists ...
     new r_m :   0.0252 (alat units)  0.5862 (a.u.) for type    1
     new r_m :   0.0476 (alat units)  1.1095 (a.u.) for type    2
     new r_m :   0.0476 (alat units)  1.1095 (a.u.) for type    3

     Check: negative core charge=   -0.000002

     Initial potential from superposition of free atoms

     starting charge  208.80532, renormalised to  209.00000

     negative rho (up, down):  6.339E-05 1.094E-02


---------------------------------------------------------------------------------
Carrying out rVV10 run using the following parameters:
Nqs =      20    Nr_points =    1024   r_max =   100.000
b_value =  6.30000    beta =  0.00901
     q_mesh =  0.00010000  0.00030000  0.00058939  0.00100810
               0.00161396  0.00249058  0.00375900  0.00559430
               0.00824984  0.01209221  0.01765183  0.02569619
               0.03733578  0.05417739  0.07854596  0.11380545
               0.16482331  0.23864234  0.34545298  0.50000000

Gradients computed in Reciprocal space

---------------------------------------------------------------------------------


     Starting wfcs are  207 randomized atomic wfcs

     total cpu time spent up to now is       75.9 secs

     Self-consistent Calculation

     iteration #  1     ecut=    70.00 Ry     beta= 0.70
     Davidson diagonalization with overlap
     ethr =  1.00E-02,  avg # of iterations =  3.5

     negative rho (up, down):  1.540E-04 1.152E-02

     total cpu time spent up to now is      211.8 secs

     total energy              =    -727.42616244 Ry
     Harris-Foulkes estimate   =    -734.89672170 Ry
     estimated scf accuracy    <      14.19976111 Ry

     total magnetization       =     7.00 Bohr mag/cell
     absolute magnetization    =     7.37 Bohr mag/cell

     iteration #  2     ecut=    70.00 Ry     beta= 0.70
     Davidson diagonalization with overlap
     ethr =  6.79E-03,  avg # of iterations =  4.0

     negative rho (up, down):  1.694E-04 1.028E-02

     total cpu time spent up to now is      342.1 secs

     total energy              =    -728.36249479 Ry
     Harris-Foulkes estimate   =    -744.70157481 Ry
     estimated scf accuracy    <      42.59451294 Ry

     total magnetization       =     2.97 Bohr mag/cell
     absolute magnetization    =     3.23 Bohr mag/cell

     iteration #  3     ecut=    70.00 Ry     beta= 0.70
     Davidson diagonalization with overlap
     ethr =  6.79E-03,  avg # of iterations =  4.0

     negative rho (up, down):  2.006E-04 8.301E-03

     total cpu time spent up to now is      459.9 secs

     total energy              =    -732.26179332 Ry
     Harris-Foulkes estimate   =    -736.12959004 Ry
     estimated scf accuracy    <      10.70393665 Ry

     total magnetization       =     1.09 Bohr mag/cell
     absolute magnetization    =     1.61 Bohr mag/cell

     iteration #  4     ecut=    70.00 Ry     beta= 0.70
     Davidson diagonalization with overlap
     ethr =  5.12E-03,  avg # of iterations =  3.0

     negative rho (up, down):  2.505E-04 6.555E-03

     total cpu time spent up to now is      574.6 secs

     total energy              =    -733.72291206 Ry
     Harris-Foulkes estimate   =    -735.03672477 Ry
     estimated scf accuracy    <       5.62869259 Ry

     total magnetization       =     3.00 Bohr mag/cell
     absolute magnetization    =     3.15 Bohr mag/cell

     iteration #  5     ecut=    70.00 Ry     beta= 0.70
     Davidson diagonalization with overlap
     ethr =  2.69E-03,  avg # of iterations =  3.0

     negative rho (up, down):  2.872E-04 9.264E-03

     total cpu time spent up to now is      681.6 secs

     total energy              =    -734.32919781 Ry
     Harris-Foulkes estimate   =    -735.13532677 Ry
     estimated scf accuracy    <       3.88806705 Ry

     total magnetization       =     1.00 Bohr mag/cell
     absolute magnetization    =     1.45 Bohr mag/cell

     iteration #  6     ecut=    70.00 Ry     beta= 0.70
     Davidson diagonalization with overlap
     ethr =  1.86E-03,  avg # of iterations =  2.0

     negative rho (up, down):  3.499E-04 1.443E-02

     total cpu time spent up to now is      782.2 secs

     total energy              =    -734.67199084 Ry
     Harris-Foulkes estimate   =    -734.79522201 Ry
     estimated scf accuracy    <       0.34494657 Ry

     total magnetization       =     1.00 Bohr mag/cell
     absolute magnetization    =     1.35 Bohr mag/cell

     iteration #  7     ecut=    70.00 Ry     beta= 0.70
     Davidson diagonalization with overlap
     ethr =  1.65E-04,  avg # of iterations =  5.0

     negative rho (up, down):  4.735E-04 1.195E-02

     total cpu time spent up to now is      898.1 secs

     total energy              =    -734.72718727 Ry
     Harris-Foulkes estimate   =    -734.79923235 Ry
     estimated scf accuracy    <       0.25711923 Ry

     total magnetization       =     1.00 Bohr mag/cell
     absolute magnetization    =     1.24 Bohr mag/cell

     iteration #  8     ecut=    70.00 Ry     beta= 0.70
     Davidson diagonalization with overlap
     ethr =  1.23E-04,  avg # of iterations =  3.0

     negative rho (up, down):  5.635E-04 5.570E-03

     total cpu time spent up to now is      995.9 secs

     total energy              =    -734.75057119 Ry
     Harris-Foulkes estimate   =    -734.76913429 Ry
     estimated scf accuracy    <       0.06719134 Ry

     total magnetization       =     1.00 Bohr mag/cell
     absolute magnetization    =     1.19 Bohr mag/cell

     iteration #  9     ecut=    70.00 Ry     beta= 0.70
     Davidson diagonalization with overlap
     ethr =  3.21E-05,  avg # of iterations = 12.5

     negative rho (up, down):  6.168E-04 2.929E-03

     total cpu time spent up to now is     1100.6 secs

     total energy              =    -734.75922659 Ry
     Harris-Foulkes estimate   =    -734.76160558 Ry
     estimated scf accuracy    <       0.03651022 Ry

     total magnetization       =     1.00 Bohr mag/cell
     absolute magnetization    =     1.17 Bohr mag/cell

     iteration # 10     ecut=    70.00 Ry     beta= 0.70
     Davidson diagonalization with overlap
     ethr =  1.75E-05,  avg # of iterations =  1.0

     negative rho (up, down):  6.453E-04 2.622E-03

     total cpu time spent up to now is     1200.4 secs

     total energy              =    -734.76011737 Ry
     Harris-Foulkes estimate   =    -734.76074486 Ry
     estimated scf accuracy    <       0.00279714 Ry

     total magnetization       =     1.00 Bohr mag/cell
     absolute magnetization    =     1.13 Bohr mag/cell

     iteration # 11     ecut=    70.00 Ry     beta= 0.70
     Davidson diagonalization with overlap
     ethr =  1.34E-06,  avg # of iterations =  4.0

     negative rho (up, down):  6.472E-04 2.385E-03

     total cpu time spent up to now is     1318.6 secs

     total energy              =    -734.76054738 Ry
     Harris-Foulkes estimate   =    -734.76079907 Ry
     estimated scf accuracy    <       0.00092231 Ry

     total magnetization       =     1.00 Bohr mag/cell
     absolute magnetization    =     1.10 Bohr mag/cell

     iteration # 12     ecut=    70.00 Ry     beta= 0.70
     Davidson diagonalization with overlap
     ethr =  4.41E-07,  avg # of iterations =  2.0

     negative rho (up, down):  6.433E-04 2.047E-03

     total cpu time spent up to now is     1426.3 secs

     total energy              =    -734.76069499 Ry
     Harris-Foulkes estimate   =    -734.76074499 Ry
     estimated scf accuracy    <       0.00045171 Ry

     total magnetization       =     1.00 Bohr mag/cell
     absolute magnetization    =     1.09 Bohr mag/cell

     iteration # 13     ecut=    70.00 Ry     beta= 0.70
     Davidson diagonalization with overlap
     ethr =  2.16E-07,  avg # of iterations =  2.0

     negative rho (up, down):  6.346E-04 1.609E-03

     total cpu time spent up to now is     1529.1 secs

     total energy              =    -734.76075194 Ry
     Harris-Foulkes estimate   =    -734.76074765 Ry
     estimated scf accuracy    <       0.00024526 Ry

     total magnetization       =     1.00 Bohr mag/cell
     absolute magnetization    =     1.08 Bohr mag/cell

     iteration # 14     ecut=    70.00 Ry     beta= 0.70
     Davidson diagonalization with overlap
     ethr =  1.17E-07,  avg # of iterations =  1.0

     negative rho (up, down):  6.321E-04 1.615E-03

     total cpu time spent up to now is     1627.1 secs

     total energy              =    -734.76075376 Ry
     Harris-Foulkes estimate   =    -734.76076023 Ry
     estimated scf accuracy    <       0.00039103 Ry

     total magnetization       =     1.00 Bohr mag/cell
     absolute magnetization    =     1.08 Bohr mag/cell

     iteration # 15     ecut=    70.00 Ry     beta= 0.70
     Davidson diagonalization with overlap
     ethr =  1.17E-07,  avg # of iterations =  1.0

     negative rho (up, down):  6.319E-04 1.599E-03

     total cpu time spent up to now is     1720.1 secs

     total energy              =    -734.76075565 Ry
     Harris-Foulkes estimate   =    -734.76075992 Ry
     estimated scf accuracy    <       0.00007092 Ry

     total magnetization       =     1.00 Bohr mag/cell
     absolute magnetization    =     1.07 Bohr mag/cell

     iteration # 16     ecut=    70.00 Ry     beta= 0.70
     Davidson diagonalization with overlap
     ethr =  3.39E-08,  avg # of iterations =  2.0

     negative rho (up, down):  6.296E-04 1.577E-03

     total cpu time spent up to now is     1816.0 secs

     total energy              =    -734.76075920 Ry
     Harris-Foulkes estimate   =    -734.76075871 Ry
     estimated scf accuracy    <       0.00001856 Ry

     total magnetization       =     1.00 Bohr mag/cell
     absolute magnetization    =     1.07 Bohr mag/cell

     iteration # 17     ecut=    70.00 Ry     beta= 0.70
     Davidson diagonalization with overlap
     ethr =  8.88E-09,  avg # of iterations =  3.0

     negative rho (up, down):  6.293E-04 1.568E-03

     total cpu time spent up to now is     1921.2 secs

     total energy              =    -734.76076129 Ry
     Harris-Foulkes estimate   =    -734.76076081 Ry
     estimated scf accuracy    <       0.00001379 Ry

     total magnetization       =     1.00 Bohr mag/cell
     absolute magnetization    =     1.07 Bohr mag/cell

     iteration # 18     ecut=    70.00 Ry     beta= 0.70
     Davidson diagonalization with overlap
     ethr =  6.60E-09,  avg # of iterations =  1.0

     negative rho (up, down):  6.289E-04 1.586E-03

     total cpu time spent up to now is     2020.9 secs

     total energy              =    -734.76076170 Ry
     Harris-Foulkes estimate   =    -734.76076162 Ry
     estimated scf accuracy    <       0.00002719 Ry

     total magnetization       =     1.00 Bohr mag/cell
     absolute magnetization    =     1.07 Bohr mag/cell

     iteration # 19     ecut=    70.00 Ry     beta= 0.70
     Davidson diagonalization with overlap
     ethr =  6.60E-09,  avg # of iterations =  1.0

     negative rho (up, down):  6.292E-04 1.568E-03

     total cpu time spent up to now is     2119.9 secs

     total energy              =    -734.76076189 Ry
     Harris-Foulkes estimate   =    -734.76076195 Ry
     estimated scf accuracy    <       0.00001823 Ry

     total magnetization       =     1.00 Bohr mag/cell
     absolute magnetization    =     1.07 Bohr mag/cell

     iteration # 20     ecut=    70.00 Ry     beta= 0.70
     Davidson diagonalization with overlap
     ethr =  6.60E-09,  avg # of iterations =  2.0

     negative rho (up, down):  6.291E-04 1.579E-03

     total cpu time spent up to now is     2224.8 secs

     total energy              =    -734.76076230 Ry
     Harris-Foulkes estimate   =    -734.76076253 Ry
     estimated scf accuracy    <       0.00001484 Ry

     total magnetization       =     1.00 Bohr mag/cell
     absolute magnetization    =     1.06 Bohr mag/cell

     iteration # 21     ecut=    70.00 Ry     beta= 0.70
     Davidson diagonalization with overlap
     ethr =  6.60E-09,  avg # of iterations =  1.0

     negative rho (up, down):  6.292E-04 1.574E-03

     total cpu time spent up to now is     2325.6 secs

     total energy              =    -734.76076239 Ry
     Harris-Foulkes estimate   =    -734.76076248 Ry
     estimated scf accuracy    <       0.00000641 Ry

     total magnetization       =     1.00 Bohr mag/cell
     absolute magnetization    =     1.06 Bohr mag/cell

     iteration # 22     ecut=    70.00 Ry     beta= 0.70
     Davidson diagonalization with overlap
     ethr =  3.07E-09,  avg # of iterations =  1.5

     negative rho (up, down):  6.295E-04 1.565E-03

     total cpu time spent up to now is     2427.4 secs

     total energy              =    -734.76076241 Ry
     Harris-Foulkes estimate   =    -734.76076258 Ry
     estimated scf accuracy    <       0.00000305 Ry

     total magnetization       =     1.00 Bohr mag/cell
     absolute magnetization    =     1.06 Bohr mag/cell

     iteration # 23     ecut=    70.00 Ry     beta= 0.70
     Davidson diagonalization with overlap
     ethr =  1.46E-09,  avg # of iterations =  2.5

     negative rho (up, down):  6.294E-04 1.583E-03

     Magnetic moment per site:
     atom:    1    charge:    0.2110    magn:   -0.0000    constr:    0.0000
     atom:    2    charge:    0.2115    magn:    0.0000    constr:    0.0000
     atom:    3    charge:    1.7157    magn:    0.0016    constr:    0.0000
     atom:    4    charge:    1.7153    magn:    0.0017    constr:    0.0000
     atom:    5    charge:    1.7169    magn:   -0.0000    constr:    0.0000
     atom:    6    charge:    1.7146    magn:   -0.0000    constr:    0.0000
     atom:    7    charge:    1.7170    magn:    0.0000    constr:    0.0000
     atom:    8    charge:    1.7153    magn:    0.0018    constr:    0.0000
     atom:    9    charge:    1.7158    magn:    0.0016    constr:    0.0000
     atom:   10    charge:    1.7170    magn:   -0.0009    constr:    0.0000
     atom:   11    charge:    1.7160    magn:    0.0006    constr:    0.0000
     atom:   12    charge:    1.7170    magn:   -0.0009    constr:    0.0000
     atom:   13    charge:    1.7160    magn:    0.0006    constr:    0.0000
     atom:   14    charge:    1.7168    magn:   -0.0010    constr:    0.0000
     atom:   15    charge:    1.7129    magn:    0.0070    constr:    0.0000
     atom:   16    charge:    1.7106    magn:    0.0129    constr:    0.0000
     atom:   17    charge:    1.7214    magn:    0.0031    constr:    0.0000
     atom:   18    charge:    1.7107    magn:    0.0131    constr:    0.0000
     atom:   19    charge:    1.7130    magn:    0.0074    constr:    0.0000
     atom:   20    charge:    1.7168    magn:   -0.0010    constr:    0.0000
     atom:   21    charge:    1.7160    magn:    0.0006    constr:    0.0000
     atom:   22    charge:    1.7170    magn:   -0.0009    constr:    0.0000
     atom:   23    charge:    1.7158    magn:    0.0016    constr:    0.0000
     atom:   24    charge:    1.7153    magn:    0.0018    constr:    0.0000
     atom:   25    charge:    1.7129    magn:    0.0072    constr:    0.0000
     atom:   26    charge:    1.7111    magn:    0.0136    constr:    0.0000
     atom:   27    charge:    1.8171    magn:    0.0784    constr:    0.0000
     atom:   28    charge:    7.0285    magn:    0.1547    constr:    0.0000
     atom:   29    charge:    1.8180    magn:    0.0817    constr:    0.0000
     atom:   30    charge:    1.7107    magn:    0.0131    constr:    0.0000
     atom:   31    charge:    1.7130    magn:    0.0074    constr:    0.0000
     atom:   32    charge:    1.7153    magn:    0.0018    constr:    0.0000
     atom:   33    charge:    1.7170    magn:    0.0000    constr:    0.0000
     atom:   34    charge:    1.7153    magn:    0.0000    constr:    0.0000
     atom:   35    charge:    1.7169    magn:   -0.0000    constr:    0.0000
     atom:   36    charge:    1.7146    magn:   -0.0000    constr:    0.0000
     atom:   37    charge:    1.7214    magn:    0.0029    constr:    0.0000
     atom:   38    charge:    1.7111    magn:    0.0136    constr:    0.0000
     atom:   39    charge:    1.8171    magn:    0.0784    constr:    0.0000
     atom:   40    charge:    1.7106    magn:    0.0129    constr:    0.0000
     atom:   41    charge:    1.7214    magn:    0.0031    constr:    0.0000
     atom:   42    charge:    1.7146    magn:   -0.0000    constr:    0.0000
     atom:   43    charge:    1.7169    magn:   -0.0000    constr:    0.0000
     atom:   44    charge:    1.7153    magn:    0.0000    constr:    0.0000
     atom:   45    charge:    1.7211    magn:   -0.0007    constr:    0.0000
     atom:   46    charge:    1.7153    magn:    0.0000    constr:    0.0000
     atom:   47    charge:    1.7169    magn:   -0.0000    constr:    0.0000
     atom:   48    charge:    1.7153    magn:    0.0018    constr:    0.0000
     atom:   49    charge:    1.7129    magn:    0.0072    constr:    0.0000
     atom:   50    charge:    1.7168    magn:   -0.0010    constr:    0.0000
     atom:   51    charge:    1.7129    magn:    0.0070    constr:    0.0000
     atom:   52    charge:    1.7153    magn:    0.0017    constr:    0.0000

     total cpu time spent up to now is     2532.9 secs

     End of self-consistent calculation

 ------ SPIN UP ------------


          k = 0.0000 0.0000 0.0000 ( 87777 PWs)   bands (ev):

   -19.8500 -19.0079 -19.0076 -18.9129 -18.9117 -18.8505 -18.7755 -17.1788
   -17.1777 -17.1404 -17.0984 -17.0963 -16.8186 -16.3376 -16.3372 -16.1923
   -16.1916 -16.1694 -15.7785 -14.4347 -14.4344 -14.1387 -14.0429 -14.0425
   -13.5863 -13.1758 -13.1754 -13.0888 -12.9473 -12.9463 -12.6412 -12.3267
   -12.3260 -11.7237 -11.6180 -11.6177 -11.1962 -10.9477 -10.9473  -9.5341
    -9.3736  -9.3729  -9.2516  -9.2421  -9.2419  -9.2327  -9.1275  -9.1228
    -9.0705  -9.0698  -8.9712  -8.7264  -8.7261  -7.9802  -7.9055  -7.8499
    -7.6736  -7.6725  -7.5431  -7.5431  -6.9985  -6.8988  -6.8493  -6.8440
    -6.8269  -6.7879  -6.7236  -6.7224  -6.6280  -6.6272  -6.5829  -6.5762
    -6.5759  -6.5307  -6.4085  -6.4067  -6.3801  -5.6221  -5.6220  -5.0375
    -5.0120  -4.9655  -4.8949  -4.8944  -4.7704  -4.7333  -4.7304  -4.5502
    -4.5445  -4.4720  -3.8607  -3.8591  -3.8271  -3.8268  -3.7906  -3.6506
    -3.6446  -3.4138  -1.8924  -1.8348  -1.8344  -1.7451  -1.7417  -1.2348
    -0.8498  -0.8493   0.9016   0.9368   0.9401   1.0851   1.0854   1.4882
     2.4917   2.7818   2.7858   2.8278   2.9182   2.9217   3.3978   3.6069
     3.6236   3.7249   3.7311   3.7492   3.8986   4.2609

     occupation numbers 
     1.0000   1.0000   1.0000   1.0000   1.0000   1.0000   1.0000   1.0000
     1.0000   1.0000   1.0000   1.0000   1.0000   1.0000   1.0000   1.0000
     1.0000   1.0000   1.0000   1.0000   1.0000   1.0000   1.0000   1.0000
     1.0000   1.0000   1.0000   1.0000   1.0000   1.0000   1.0000   1.0000
     1.0000   1.0000   1.0000   1.0000   1.0000   1.0000   1.0000   1.0000
     1.0000   1.0000   1.0000   1.0000   1.0000   1.0000   1.0000   1.0000
     1.0000   1.0000   1.0000   1.0000   1.0000   1.0000   1.0000   1.0000
     1.0000   1.0000   1.0000   1.0000   1.0000   1.0000   1.0000   1.0000
     1.0000   1.0000   1.0000   1.0000   1.0000   1.0000   1.0000   1.0000
     1.0000   1.0000   1.0000   1.0000   1.0000   1.0000   1.0000   1.0000
     1.0000   1.0000   1.0000   1.0000   1.0000   1.0000   1.0000   1.0000
     1.0000   1.0000   1.0000   1.0000   1.0000   1.0000   1.0000   1.0000
     1.0000   1.0000   1.0000   1.0000   1.0000   1.0000   1.0000   1.0000
     0.5137   0.4863   0.0000   0.0000   0.0000   0.0000   0.0000   0.0000
     0.0000   0.0000   0.0000   0.0000   0.0000   0.0000   0.0000   0.0000
     0.0000   0.0000   0.0000   0.0000   0.0000   0.0000

 ------ SPIN DOWN ----------


          k = 0.0000 0.0000 0.0000 ( 87777 PWs)   bands (ev):

   -19.8248 -18.9755 -18.9748 -18.9061 -18.9049 -18.8473 -18.7002 -17.1388
   -17.1384 -17.1244 -17.0760 -17.0750 -16.7851 -16.3002 -16.3000 -16.1705
   -16.1703 -16.1625 -15.7030 -14.3451 -14.3440 -14.1145 -14.0348 -14.0344
   -13.5440 -13.1505 -13.1499 -13.0759 -12.9102 -12.9100 -12.5764 -12.2154
   -12.2151 -11.7040 -11.5834 -11.5831 -11.0910 -10.8179 -10.8171  -9.4932
    -9.3540  -9.3535  -9.2440  -9.2333  -9.2332  -9.2203  -9.0140  -9.0136
    -8.9553  -8.9522  -8.8464  -8.6850  -8.6846  -7.9691  -7.8813  -7.8280
    -7.6247  -7.6238  -7.5256  -7.5255  -6.9653  -6.8683  -6.8482  -6.8363
    -6.7880  -6.7864  -6.7106  -6.7041  -6.6061  -6.6052  -6.5751  -6.5723
    -6.5720  -6.5245  -6.3724  -6.3659  -6.3620  -5.5947  -5.5943  -5.0185
    -4.9557  -4.8750  -4.8744  -4.8010  -4.7655  -4.7322  -4.7283  -4.5405
    -4.5348  -4.4559  -3.8564  -3.8549  -3.8015  -3.8015  -3.7914  -3.6324
    -3.6263  -3.3754  -1.8886  -1.8327  -1.8323  -1.7233  -1.7195  -1.1986
    -0.4528  -0.4436   0.9047   0.9401   0.9435   1.1083   1.1086   1.5004
     2.4923   2.7841   2.7879   2.8288   2.9454   2.9488   3.4070   3.6080
     3.6270   3.7245   3.7305   3.7480   3.9040   4.2616

     occupation numbers 
     1.0000   1.0000   1.0000   1.0000   1.0000   1.0000   1.0000   1.0000
     1.0000   1.0000   1.0000   1.0000   1.0000   1.0000   1.0000   1.0000
     1.0000   1.0000   1.0000   1.0000   1.0000   1.0000   1.0000   1.0000
     1.0000   1.0000   1.0000   1.0000   1.0000   1.0000   1.0000   1.0000
     1.0000   1.0000   1.0000   1.0000   1.0000   1.0000   1.0000   1.0000
     1.0000   1.0000   1.0000   1.0000   1.0000   1.0000   1.0000   1.0000
     1.0000   1.0000   1.0000   1.0000   1.0000   1.0000   1.0000   1.0000
     1.0000   1.0000   1.0000   1.0000   1.0000   1.0000   1.0000   1.0000
     1.0000   1.0000   1.0000   1.0000   1.0000   1.0000   1.0000   1.0000
     1.0000   1.0000   1.0000   1.0000   1.0000   1.0000   1.0000   1.0000
     1.0000   1.0000   1.0000   1.0000   1.0000   1.0000   1.0000   1.0000
     1.0000   1.0000   1.0000   1.0000   1.0000   1.0000   1.0000   1.0000
     1.0000   1.0000   1.0000   1.0000   1.0000   1.0000   1.0000   1.0000
     0.0000   0.0000   0.0000   0.0000   0.0000   0.0000   0.0000   0.0000
     0.0000   0.0000   0.0000   0.0000   0.0000   0.0000   0.0000   0.0000
     0.0000   0.0000   0.0000   0.0000   0.0000   0.0000

     the Fermi energy is    -0.8477 ev

!    total energy              =    -734.76076237 Ry
     Harris-Foulkes estimate   =    -734.76076270 Ry
     estimated scf accuracy    <       0.00000079 Ry

     The total energy is the sum of the following terms:

     one-electron contribution =   -2492.59451392 Ry
     hartree contribution      =    1301.96533568 Ry
     xc contribution           =    -275.93044037 Ry
     ewald contribution        =     731.79918417 Ry
     smearing contrib. (-TS)   =      -0.00032793 Ry

     total magnetization       =     1.00 Bohr mag/cell
     absolute magnetization    =     1.06 Bohr mag/cell

     convergence has been achieved in  23 iterations

     Writing output data file cobre-sixhollow-2.6.save/

     init_run     :     73.53s CPU     74.82s WALL (       1 calls)
     electrons    :   2414.02s CPU   2457.12s WALL (       1 calls)

     Called by init_run:
     wfcinit      :     44.56s CPU     44.78s WALL (       1 calls)
     wfcinit:atom :      0.05s CPU      0.09s WALL (       2 calls)
     wfcinit:wfcr :     44.16s CPU     44.30s WALL (       2 calls)
     potinit      :     11.98s CPU     12.38s WALL (       1 calls)
     hinit0       :      7.82s CPU      7.86s WALL (       1 calls)

     Called by electrons:
     c_bands      :   1513.20s CPU   1519.98s WALL (      23 calls)
     sum_band     :    525.54s CPU    540.25s WALL (      23 calls)
     v_of_rho     :    184.17s CPU    193.39s WALL (      24 calls)
     v_h          :      1.97s CPU      2.03s WALL (      24 calls)
     v_xc         :    182.20s CPU    191.36s WALL (      24 calls)
     newd         :    189.89s CPU    202.93s WALL (      24 calls)
     mix_rho      :     10.86s CPU     11.01s WALL (      23 calls)

     Called by c_bands:
     init_us_2    :      4.76s CPU      4.80s WALL (      94 calls)
     cegterg      :   1502.12s CPU   1508.89s WALL (      46 calls)

     Called by sum_band:
     sum_band:bec :      0.04s CPU      0.04s WALL (      46 calls)
     addusdens    :    331.38s CPU    345.00s WALL (      23 calls)

     Called by *egterg:
     h_psi        :    806.23s CPU    811.27s WALL (     178 calls)
     s_psi        :    270.93s CPU    271.01s WALL (     178 calls)
     g_psi        :      0.82s CPU      0.82s WALL (     130 calls)
     cdiaghg      :     11.10s CPU     11.11s WALL (     176 calls)
     cegterg:over :    180.67s CPU    180.70s WALL (     130 calls)
     cegterg:upda :    105.52s CPU    106.02s WALL (     130 calls)
     cegterg:last :     80.75s CPU     80.77s WALL (      46 calls)

     Called by h_psi:
     h_psi:pot    :    805.29s CPU    809.38s WALL (     178 calls)
     h_psi:calbec :    268.76s CPU    268.85s WALL (     178 calls)
     vloc_psi     :    267.51s CPU    271.47s WALL (     178 calls)
     add_vuspsi   :    269.02s CPU    269.06s WALL (     178 calls)

     General routines
     calbec       :    385.43s CPU    385.55s WALL (     224 calls)
     fft          :    105.69s CPU    109.43s WALL (    1794 calls)
     ffts         :      1.90s CPU      1.94s WALL (      94 calls)
     fftw         :    284.17s CPU    288.39s WALL (   32240 calls)
     interpolate  :      4.49s CPU      4.57s WALL (      48 calls)

     Parallel routines
     fft_scatt_xy :     73.74s CPU     74.44s WALL (   34128 calls)
     fft_scatt_yz :    123.99s CPU    129.81s WALL (   34128 calls)

     PWSCF        :  41m28.84s CPU  42m13.62s WALL


   This run was terminated on:  15:40:24   6Sep2022            

=------------------------------------------------------------------------------=
   JOB DONE.
=------------------------------------------------------------------------------=
