
     Program PWSCF v.6.4.1 starts on  6Sep2022 at 17:51:30 

     This program is part of the open-source Quantum ESPRESSO suite
     for quantum simulation of materials; please cite
         "P. Giannozzi et al., J. Phys.:Condens. Matter 21 395502 (2009);
         "P. Giannozzi et al., J. Phys.:Condens. Matter 29 465901 (2017);
          URL http://www.quantum-espresso.org", 
     in publications or presentations arising from this work. More details at
     http://www.quantum-espresso.org/quote

     Parallel version (MPI), running on     6 processors

     MPI processes distributed on     1 nodes
     R & G space division:  proc/nbgrp/npool/nimage =       6
     Reading input from distance-1.8.in

     Current dimensions of program PWSCF are:
     Max number of different atomic species (ntypx) = 10
     Max number of k-points (npk) =  40000
     Max angular momentum in pseudopotentials (lmaxx) =  3

     IMPORTANT: XC functional enforced from input :
     Exchange-correlation      = RVV10 ( 1  4 13  4 3 0)
     Any further DFT definition will be discarded
     Please, verify this is what you really want

               file H.pbe-rrkjus.UPF: wavefunction(s)  1S renormalized
               file Cu.pbe-dn-rrkjus_psl.1.0.0.UPF: wavefunction(s)  3D renormalized

     Subspace diagonalization in iterative solution of the eigenvalue problem:
     a serial algorithm will be used


     Parallelization info
     --------------------
     sticks:   dense  smooth     PW     G-vecs:    dense   smooth      PW
     Min        3051    1746    432               270999   117096   14629
     Max        3053    1747    437               271001   117099   14630
     Sum       18313   10477   2611              1626001   702581   87777



     bravais-lattice index     =            4
     lattice parameter (alat)  =      23.2937  a.u.
     unit-cell volume          =    8879.8548 (a.u.)^3
     number of atoms/cell      =           52
     number of atomic types    =            3
     number of electrons       =       209.00
     number of Kohn-Sham states=          126
     kinetic-energy cutoff     =      70.0000  Ry
     charge density cutoff     =     490.0000  Ry
     convergence threshold     =      1.0E-06
     mixing beta               =       0.7000
     number of iterations used =            8  plain     mixing
     Exchange-correlation      = RVV10 ( 1  4 13  4 3 0)

     celldm(1)=  23.293684  celldm(2)=   0.000000  celldm(3)=   0.811261
     celldm(4)=   0.000000  celldm(5)=   0.000000  celldm(6)=   0.000000

     crystal axes: (cart. coord. in units of alat)
               a(1) = (   1.000000   0.000000   0.000000 )  
               a(2) = (  -0.500000   0.866025   0.000000 )  
               a(3) = (   0.000000   0.000000   0.811261 )  

     reciprocal axes: (cart. coord. in units 2 pi/alat)
               b(1) = (  1.000000  0.577350 -0.000000 )  
               b(2) = (  0.000000  1.154701  0.000000 )  
               b(3) = (  0.000000 -0.000000  1.232649 )  


     PseudoPot. # 1 for H  read from file:
     /home/cristian/Escritorio/Proyecto_Grafeno/pseudopotenciales/H.pbe-rrkjus.UPF
     MD5 check sum: 7cc9d459525c9a0585f487a71c3c9563
     Pseudo is Ultrasoft, Zval =  1.0
     Generated by new atomic code, or converted to UPF format
     Using radial grid of 1061 points,  2 beta functions with: 
                l(1) =   0
                l(2) =   0
     Q(r) pseudized with 0 coefficients 


     PseudoPot. # 2 for C  read from file:
     /home/cristian/Escritorio/Proyecto_Grafeno/pseudopotenciales/C.pbe-n-rrkjus_psl.1.0.0.UPF
     MD5 check sum: 1fdd950c42eb37d8afe3dd2f8d12311e
     Pseudo is Ultrasoft + core correction, Zval =  4.0
     Generated using "atomic" code by A. Dal Corso v.6.3MaX
     Using radial grid of 1073 points,  4 beta functions with: 
                l(1) =   0
                l(2) =   0
                l(3) =   1
                l(4) =   1
     Q(r) pseudized with 0 coefficients 


     PseudoPot. # 3 for Cu read from file:
     /home/cristian/Escritorio/Proyecto_Grafeno/pseudopotenciales/Cu.pbe-dn-rrkjus_psl.1.0.0.UPF
     MD5 check sum: ba3d6c84e19846e79d48cdc68ff7152b
     Pseudo is Ultrasoft + core correction, Zval = 11.0
     Generated using "atomic" code by A. Dal Corso v.6.3
     Using radial grid of 1199 points,  6 beta functions with: 
                l(1) =   0
                l(2) =   0
                l(3) =   1
                l(4) =   1
                l(5) =   2
                l(6) =   2
     Q(r) pseudized with 0 coefficients 


     vdW kernel table read from file rVV10_kernel_table
     MD5 check sum: b8e2538accc0c0b3206b45ba4daaba6c

     atomic species   valence    mass     pseudopotential
        H              1.00     1.00794     H ( 1.00)
        C              4.00    12.01070     C ( 1.00)
        Cu            11.00    63.54600     Cu( 1.00)

     Starting magnetic structure 
     atomic species   magnetization
        H            0.500
        C            0.300
        Cu           0.800

      2 Sym. Ops. (no inversion) found


                                    s                        frac. trans.

      isym =  1     identity                                     

 cryst.   s( 1) = (     1          0          0      )
                  (     0          1          0      )
                  (     0          0          1      )

 cart.    s( 1) = (  1.0000000  0.0000000  0.0000000 )
                  (  0.0000000  1.0000000  0.0000000 )
                  (  0.0000000  0.0000000  1.0000000 )


      isym =  2     inv. 180 deg rotation - cryst. axis [1,1,0]  

 cryst.   s( 2) = (     0         -1          0      )
                  (    -1          0          0      )
                  (     0          0          1      )

 cart.    s( 2) = (  0.5000000 -0.8660254  0.0000000 )
                  ( -0.8660254 -0.5000000  0.0000000 )
                  (  0.0000000  0.0000000  1.0000000 )


     point group C_s (m)    
     there are  2 classes
     the character table:

       E     s    
A'     1.00  1.00
A''    1.00 -1.00

     the symmetry operations in each class and the name of the first element:

     E        1
          identity                                               
     s        2
          inv. 180 deg rotation - cryst. axis [1,1,0]            

   Cartesian axes

     site n.     atom                  positions (alat units)
         1           H   tau(   1) = (   0.3000000   0.4041452   0.1460270  )
         2           H   tau(   2) = (   0.3000000   0.4041452   0.2070397  )
         3           C   tau(   3) = (   0.0000000   0.0000000   0.0000000  )
         4           C   tau(   4) = (   0.0000000   0.1154701   0.0000000  )
         5           C   tau(   5) = (  -0.1000000   0.1732051   0.0000000  )
         6           C   tau(   6) = (  -0.1000000   0.2886751   0.0000000  )
         7           C   tau(   7) = (  -0.2000000   0.3464102   0.0000000  )
         8           C   tau(   8) = (  -0.2000000   0.4618802   0.0000000  )
         9           C   tau(   9) = (  -0.3000000   0.5196152   0.0000000  )
        10           C   tau(  10) = (  -0.3000000   0.6350853   0.0000000  )
        11           C   tau(  11) = (  -0.4000000   0.6928203   0.0000000  )
        12           C   tau(  12) = (  -0.4000000   0.8082904   0.0000000  )
        13           C   tau(  13) = (   0.2000000   0.0000000   0.0000000  )
        14           C   tau(  14) = (   0.2000000   0.1154701   0.0000000  )
        15           C   tau(  15) = (   0.1000000   0.1732051   0.0000000  )
        16           C   tau(  16) = (   0.1000000   0.2886751   0.0000000  )
        17           C   tau(  17) = (   0.0000000   0.3464102   0.0000000  )
        18           C   tau(  18) = (   0.0000000   0.4618802   0.0000000  )
        19           C   tau(  19) = (  -0.1000000   0.5196152   0.0000000  )
        20           C   tau(  20) = (  -0.1000000   0.6350853   0.0000000  )
        21           C   tau(  21) = (  -0.2000000   0.6928203   0.0000000  )
        22           C   tau(  22) = (  -0.2000000   0.8082904   0.0000000  )
        23           C   tau(  23) = (   0.4000000   0.0000000   0.0000000  )
        24           C   tau(  24) = (   0.4000000   0.1154701   0.0000000  )
        25           C   tau(  25) = (   0.3000000   0.1732051   0.0000000  )
        26           C   tau(  26) = (   0.3000000   0.2886751   0.0000000  )
        27           C   tau(  27) = (   0.2000000   0.3464102   0.0000000  )
        28           Cu  tau(  28) = (   0.2000000   0.4618802   0.0000000  )
        29           C   tau(  29) = (   0.1000000   0.5196152   0.0000000  )
        30           C   tau(  30) = (   0.1000000   0.6350853   0.0000000  )
        31           C   tau(  31) = (   0.0000000   0.6928203   0.0000000  )
        32           C   tau(  32) = (   0.0000000   0.8082904   0.0000000  )
        33           C   tau(  33) = (   0.6000000   0.0000000   0.0000000  )
        34           C   tau(  34) = (   0.6000000   0.1154701   0.0000000  )
        35           C   tau(  35) = (   0.5000000   0.1732051   0.0000000  )
        36           C   tau(  36) = (   0.5000000   0.2886751   0.0000000  )
        37           C   tau(  37) = (   0.4000000   0.3464102   0.0000000  )
        38           C   tau(  38) = (   0.4000000   0.4618802   0.0000000  )
        39           C   tau(  39) = (   0.3000000   0.5196152   0.0000000  )
        40           C   tau(  40) = (   0.3000000   0.6350853   0.0000000  )
        41           C   tau(  41) = (   0.2000000   0.6928203   0.0000000  )
        42           C   tau(  42) = (   0.2000000   0.8082904   0.0000000  )
        43           C   tau(  43) = (   0.8000000   0.0000000   0.0000000  )
        44           C   tau(  44) = (   0.8000000   0.1154701   0.0000000  )
        45           C   tau(  45) = (   0.7000000   0.1732051   0.0000000  )
        46           C   tau(  46) = (   0.7000000   0.2886751   0.0000000  )
        47           C   tau(  47) = (   0.6000000   0.3464102   0.0000000  )
        48           C   tau(  48) = (   0.6000000   0.4618802   0.0000000  )
        49           C   tau(  49) = (   0.5000000   0.5196152   0.0000000  )
        50           C   tau(  50) = (   0.5000000   0.6350853   0.0000000  )
        51           C   tau(  51) = (   0.4000000   0.6928203   0.0000000  )
        52           C   tau(  52) = (   0.4000000   0.8082904   0.0000000  )

   Crystallographic axes

     site n.     atom                  positions (cryst. coord.)
         1           H   tau(   1) = (  0.5333333  0.4666667  0.1800000  )
         2           H   tau(   2) = (  0.5333333  0.4666667  0.2552072  )
         3           C   tau(   3) = (  0.0000000  0.0000000  0.0000000  )
         4           C   tau(   4) = (  0.0666667  0.1333333  0.0000000  )
         5           C   tau(   5) = (  0.0000000  0.2000000  0.0000000  )
         6           C   tau(   6) = (  0.0666667  0.3333333  0.0000000  )
         7           C   tau(   7) = (  0.0000000  0.4000000  0.0000000  )
         8           C   tau(   8) = (  0.0666667  0.5333333  0.0000000  )
         9           C   tau(   9) = (  0.0000000  0.6000000  0.0000000  )
        10           C   tau(  10) = (  0.0666667  0.7333333  0.0000000  )
        11           C   tau(  11) = (  0.0000000  0.8000000  0.0000000  )
        12           C   tau(  12) = (  0.0666667  0.9333333  0.0000000  )
        13           C   tau(  13) = (  0.2000000  0.0000000  0.0000000  )
        14           C   tau(  14) = (  0.2666667  0.1333333  0.0000000  )
        15           C   tau(  15) = (  0.2000000  0.2000000  0.0000000  )
        16           C   tau(  16) = (  0.2666667  0.3333333  0.0000000  )
        17           C   tau(  17) = (  0.2000000  0.4000000  0.0000000  )
        18           C   tau(  18) = (  0.2666667  0.5333333  0.0000000  )
        19           C   tau(  19) = (  0.2000000  0.6000000  0.0000000  )
        20           C   tau(  20) = (  0.2666667  0.7333333  0.0000000  )
        21           C   tau(  21) = (  0.2000000  0.8000000  0.0000000  )
        22           C   tau(  22) = (  0.2666667  0.9333333  0.0000000  )
        23           C   tau(  23) = (  0.4000000  0.0000000  0.0000000  )
        24           C   tau(  24) = (  0.4666667  0.1333333  0.0000000  )
        25           C   tau(  25) = (  0.4000000  0.2000000  0.0000000  )
        26           C   tau(  26) = (  0.4666667  0.3333333  0.0000000  )
        27           C   tau(  27) = (  0.4000000  0.4000000  0.0000000  )
        28           Cu  tau(  28) = (  0.4666667  0.5333333  0.0000000  )
        29           C   tau(  29) = (  0.4000000  0.6000000  0.0000000  )
        30           C   tau(  30) = (  0.4666667  0.7333333  0.0000000  )
        31           C   tau(  31) = (  0.4000000  0.8000000  0.0000000  )
        32           C   tau(  32) = (  0.4666667  0.9333333  0.0000000  )
        33           C   tau(  33) = (  0.6000000  0.0000000  0.0000000  )
        34           C   tau(  34) = (  0.6666667  0.1333333  0.0000000  )
        35           C   tau(  35) = (  0.6000000  0.2000000  0.0000000  )
        36           C   tau(  36) = (  0.6666667  0.3333333  0.0000000  )
        37           C   tau(  37) = (  0.6000000  0.4000000  0.0000000  )
        38           C   tau(  38) = (  0.6666667  0.5333333  0.0000000  )
        39           C   tau(  39) = (  0.6000000  0.6000000  0.0000000  )
        40           C   tau(  40) = (  0.6666667  0.7333333  0.0000000  )
        41           C   tau(  41) = (  0.6000000  0.8000000  0.0000000  )
        42           C   tau(  42) = (  0.6666667  0.9333333  0.0000000  )
        43           C   tau(  43) = (  0.8000000  0.0000000  0.0000000  )
        44           C   tau(  44) = (  0.8666667  0.1333333  0.0000000  )
        45           C   tau(  45) = (  0.8000000  0.2000000  0.0000000  )
        46           C   tau(  46) = (  0.8666667  0.3333333  0.0000000  )
        47           C   tau(  47) = (  0.8000000  0.4000000  0.0000000  )
        48           C   tau(  48) = (  0.8666667  0.5333333  0.0000000  )
        49           C   tau(  49) = (  0.8000000  0.6000000  0.0000000  )
        50           C   tau(  50) = (  0.8666667  0.7333333  0.0000000  )
        51           C   tau(  51) = (  0.8000000  0.8000000  0.0000000  )
        52           C   tau(  52) = (  0.8666667  0.9333333  0.0000000  )

     number of k points=     1  Marzari-Vanderbilt smearing, width (Ry)=  0.0010
                       cart. coord. in units 2pi/alat
        k(    1) = (   0.0000000   0.0000000   0.0000000), wk =   1.0000000

                       cryst. coord.
        k(    1) = (   0.0000000   0.0000000   0.0000000), wk =   1.0000000

     Dense  grid:  1626001 G-vectors     FFT dimensions: ( 180, 180, 135)

     Smooth grid:   702581 G-vectors     FFT dimensions: ( 125, 125, 108)

     Dynamical RAM for                 wfc:      28.14 MB

     Dynamical RAM for     wfc (w. buffer):      84.42 MB

     Dynamical RAM for           str. fact:      12.41 MB

     Dynamical RAM for           local pot:       0.00 MB

     Dynamical RAM for          nlocal pot:      92.46 MB

     Dynamical RAM for                qrad:      19.73 MB

     Dynamical RAM for          rho,v,vnew:      58.92 MB

     Dynamical RAM for               rhoin:      19.64 MB

     Dynamical RAM for            rho*nmix:     132.32 MB

     Dynamical RAM for           G-vectors:      16.40 MB

     Dynamical RAM for          h,s,v(r/c):      11.63 MB

     Dynamical RAM for          <psi|beta>:       0.80 MB

     Dynamical RAM for                 psi:     112.56 MB

     Dynamical RAM for                hpsi:     112.56 MB

     Dynamical RAM for                spsi:     112.56 MB

     Dynamical RAM for      wfcinit/wfcrot:      93.45 MB

     Dynamical RAM for           addusdens:     975.89 MB

     Estimated static dynamical RAM per process >     486.96 MB

     Estimated max dynamical RAM per process >       1.43 GB

     Estimated total dynamical RAM >       8.57 GB
     Generating pointlists ...
     new r_m :   0.0252 (alat units)  0.5862 (a.u.) for type    1
     new r_m :   0.0476 (alat units)  1.1095 (a.u.) for type    2
     new r_m :   0.0476 (alat units)  1.1095 (a.u.) for type    3

     Check: negative core charge=   -0.000002

     Initial potential from superposition of free atoms

     starting charge  208.80532, renormalised to  209.00000

     negative rho (up, down):  6.808E-05 1.282E-02


---------------------------------------------------------------------------------
Carrying out rVV10 run using the following parameters:
Nqs =      20    Nr_points =    1024   r_max =   100.000
b_value =  6.30000    beta =  0.00901
     q_mesh =  0.00010000  0.00030000  0.00058939  0.00100810
               0.00161396  0.00249058  0.00375900  0.00559430
               0.00824984  0.01209221  0.01765183  0.02569619
               0.03733578  0.05417739  0.07854596  0.11380545
               0.16482331  0.23864234  0.34545298  0.50000000

Gradients computed in Reciprocal space

---------------------------------------------------------------------------------


     Starting wfcs are  207 randomized atomic wfcs

     total cpu time spent up to now is       78.0 secs

     Self-consistent Calculation

     iteration #  1     ecut=    70.00 Ry     beta= 0.70
     Davidson diagonalization with overlap
     ethr =  1.00E-02,  avg # of iterations =  5.0

     negative rho (up, down):  1.783E-04 1.305E-02

     total cpu time spent up to now is      217.4 secs

     total energy              =    -729.62372869 Ry
     Harris-Foulkes estimate   =    -734.88111973 Ry
     estimated scf accuracy    <      12.14146357 Ry

     total magnetization       =     4.95 Bohr mag/cell
     absolute magnetization    =     5.65 Bohr mag/cell

     iteration #  2     ecut=    70.00 Ry     beta= 0.70
     Davidson diagonalization with overlap
     ethr =  5.81E-03,  avg # of iterations =  3.5

     negative rho (up, down):  2.117E-04 1.171E-02

     total cpu time spent up to now is      347.0 secs

     total energy              =    -730.41390535 Ry
     Harris-Foulkes estimate   =    -740.31985396 Ry
     estimated scf accuracy    <      23.02598575 Ry

     total magnetization       =     3.19 Bohr mag/cell
     absolute magnetization    =     3.36 Bohr mag/cell

     iteration #  3     ecut=    70.00 Ry     beta= 0.70
     Davidson diagonalization with overlap
     ethr =  5.81E-03,  avg # of iterations =  4.0

     negative rho (up, down):  2.562E-04 8.955E-03

     total cpu time spent up to now is      460.0 secs

     total energy              =    -732.72335563 Ry
     Harris-Foulkes estimate   =    -735.58196840 Ry
     estimated scf accuracy    <       7.60253754 Ry

     total magnetization       =     1.00 Bohr mag/cell
     absolute magnetization    =     1.69 Bohr mag/cell

     iteration #  4     ecut=    70.00 Ry     beta= 0.70
     Davidson diagonalization with overlap
     ethr =  3.64E-03,  avg # of iterations =  3.0

     negative rho (up, down):  3.020E-04 8.004E-03

     total cpu time spent up to now is      571.0 secs

     total energy              =    -733.67682437 Ry
     Harris-Foulkes estimate   =    -735.31020428 Ry
     estimated scf accuracy    <       6.85261682 Ry

     total magnetization       =     3.00 Bohr mag/cell
     absolute magnetization    =     3.13 Bohr mag/cell

     iteration #  5     ecut=    70.00 Ry     beta= 0.70
     Davidson diagonalization with overlap
     ethr =  3.28E-03,  avg # of iterations =  2.5

     negative rho (up, down):  3.405E-04 9.768E-03

     total cpu time spent up to now is      671.0 secs

     total energy              =    -734.30881375 Ry
     Harris-Foulkes estimate   =    -735.00565643 Ry
     estimated scf accuracy    <       2.90030367 Ry

     total magnetization       =     1.00 Bohr mag/cell
     absolute magnetization    =     1.36 Bohr mag/cell

     iteration #  6     ecut=    70.00 Ry     beta= 0.70
     Davidson diagonalization with overlap
     ethr =  1.39E-03,  avg # of iterations =  3.0

     negative rho (up, down):  4.234E-04 1.343E-02

     total cpu time spent up to now is      769.6 secs

     total energy              =    -734.65640144 Ry
     Harris-Foulkes estimate   =    -734.76426923 Ry
     estimated scf accuracy    <       0.31702950 Ry

     total magnetization       =     1.00 Bohr mag/cell
     absolute magnetization    =     1.33 Bohr mag/cell

     iteration #  7     ecut=    70.00 Ry     beta= 0.70
     Davidson diagonalization with overlap
     ethr =  1.52E-04,  avg # of iterations =  8.0

     negative rho (up, down):  5.423E-04 9.362E-03

     total cpu time spent up to now is      885.0 secs

     total energy              =    -734.70963633 Ry
     Harris-Foulkes estimate   =    -734.75979432 Ry
     estimated scf accuracy    <       0.18403758 Ry

     total magnetization       =     1.00 Bohr mag/cell
     absolute magnetization    =     1.24 Bohr mag/cell

     iteration #  8     ecut=    70.00 Ry     beta= 0.70
     Davidson diagonalization with overlap
     ethr =  8.81E-05,  avg # of iterations =  3.0

     negative rho (up, down):  6.256E-04 3.873E-03

     total cpu time spent up to now is      982.7 secs

     total energy              =    -734.72491549 Ry
     Harris-Foulkes estimate   =    -734.74064765 Ry
     estimated scf accuracy    <       0.06441128 Ry

     total magnetization       =     1.00 Bohr mag/cell
     absolute magnetization    =     1.20 Bohr mag/cell

     iteration #  9     ecut=    70.00 Ry     beta= 0.70
     Davidson diagonalization with overlap
     ethr =  3.08E-05,  avg # of iterations =  9.5

     negative rho (up, down):  6.581E-04 2.967E-03

     total cpu time spent up to now is     1085.4 secs

     total energy              =    -734.73197757 Ry
     Harris-Foulkes estimate   =    -734.73333601 Ry
     estimated scf accuracy    <       0.02904646 Ry

     total magnetization       =     1.00 Bohr mag/cell
     absolute magnetization    =     1.16 Bohr mag/cell

     iteration # 10     ecut=    70.00 Ry     beta= 0.70
     Davidson diagonalization with overlap
     ethr =  1.39E-05,  avg # of iterations =  6.0

     negative rho (up, down):  6.809E-04 2.241E-03

     total cpu time spent up to now is     1185.5 secs

     total energy              =    -734.73266529 Ry
     Harris-Foulkes estimate   =    -734.73307700 Ry
     estimated scf accuracy    <       0.00174244 Ry

     total magnetization       =     1.00 Bohr mag/cell
     absolute magnetization    =     1.12 Bohr mag/cell

     iteration # 11     ecut=    70.00 Ry     beta= 0.70
     Davidson diagonalization with overlap
     ethr =  8.34E-07,  avg # of iterations =  4.0

     negative rho (up, down):  6.849E-04 2.176E-03

     total cpu time spent up to now is     1300.9 secs

     total energy              =    -734.73303359 Ry
     Harris-Foulkes estimate   =    -734.73324322 Ry
     estimated scf accuracy    <       0.00083311 Ry

     total magnetization       =     1.00 Bohr mag/cell
     absolute magnetization    =     1.10 Bohr mag/cell

     iteration # 12     ecut=    70.00 Ry     beta= 0.70
     Davidson diagonalization with overlap
     ethr =  3.99E-07,  avg # of iterations =  2.5

     negative rho (up, down):  6.806E-04 1.946E-03

     total cpu time spent up to now is     1413.3 secs

     total energy              =    -734.73314958 Ry
     Harris-Foulkes estimate   =    -734.73319598 Ry
     estimated scf accuracy    <       0.00062554 Ry

     total magnetization       =     1.00 Bohr mag/cell
     absolute magnetization    =     1.09 Bohr mag/cell

     iteration # 13     ecut=    70.00 Ry     beta= 0.70
     Davidson diagonalization with overlap
     ethr =  2.99E-07,  avg # of iterations =  1.0

     negative rho (up, down):  6.732E-04 1.749E-03

     total cpu time spent up to now is     1519.9 secs

     total energy              =    -734.73319957 Ry
     Harris-Foulkes estimate   =    -734.73319528 Ry
     estimated scf accuracy    <       0.00025601 Ry

     total magnetization       =     1.00 Bohr mag/cell
     absolute magnetization    =     1.08 Bohr mag/cell

     iteration # 14     ecut=    70.00 Ry     beta= 0.70
     Davidson diagonalization with overlap
     ethr =  1.22E-07,  avg # of iterations =  1.0

     negative rho (up, down):  6.703E-04 1.825E-03

     total cpu time spent up to now is     1626.4 secs

     total energy              =    -734.73319947 Ry
     Harris-Foulkes estimate   =    -734.73320625 Ry
     estimated scf accuracy    <       0.00032714 Ry

     total magnetization       =     1.00 Bohr mag/cell
     absolute magnetization    =     1.08 Bohr mag/cell

     iteration # 15     ecut=    70.00 Ry     beta= 0.70
     Davidson diagonalization with overlap
     ethr =  1.22E-07,  avg # of iterations =  1.0

     negative rho (up, down):  6.700E-04 1.833E-03

     total cpu time spent up to now is     1732.5 secs

     total energy              =    -734.73320187 Ry
     Harris-Foulkes estimate   =    -734.73320474 Ry
     estimated scf accuracy    <       0.00011032 Ry

     total magnetization       =     1.00 Bohr mag/cell
     absolute magnetization    =     1.07 Bohr mag/cell

     iteration # 16     ecut=    70.00 Ry     beta= 0.70
     Davidson diagonalization with overlap
     ethr =  5.28E-08,  avg # of iterations =  1.0

     negative rho (up, down):  6.687E-04 1.852E-03

     total cpu time spent up to now is     1838.1 secs

     total energy              =    -734.73320466 Ry
     Harris-Foulkes estimate   =    -734.73320438 Ry
     estimated scf accuracy    <       0.00000955 Ry

     total magnetization       =     1.00 Bohr mag/cell
     absolute magnetization    =     1.07 Bohr mag/cell

     iteration # 17     ecut=    70.00 Ry     beta= 0.70
     Davidson diagonalization with overlap
     ethr =  4.57E-09,  avg # of iterations =  3.0

     negative rho (up, down):  6.682E-04 1.850E-03

     total cpu time spent up to now is     1952.9 secs

     total energy              =    -734.73320626 Ry
     Harris-Foulkes estimate   =    -734.73320581 Ry
     estimated scf accuracy    <       0.00000946 Ry

     total magnetization       =     1.00 Bohr mag/cell
     absolute magnetization    =     1.07 Bohr mag/cell

     iteration # 18     ecut=    70.00 Ry     beta= 0.70
     Davidson diagonalization with overlap
     ethr =  4.53E-09,  avg # of iterations =  1.0

     negative rho (up, down):  6.680E-04 1.858E-03

     total cpu time spent up to now is     2064.3 secs

     total energy              =    -734.73320674 Ry
     Harris-Foulkes estimate   =    -734.73320665 Ry
     estimated scf accuracy    <       0.00002997 Ry

     total magnetization       =     1.00 Bohr mag/cell
     absolute magnetization    =     1.07 Bohr mag/cell

     iteration # 19     ecut=    70.00 Ry     beta= 0.70
     Davidson diagonalization with overlap
     ethr =  4.53E-09,  avg # of iterations =  1.0

     negative rho (up, down):  6.684E-04 1.861E-03

     total cpu time spent up to now is     2174.0 secs

     total energy              =    -734.73320694 Ry
     Harris-Foulkes estimate   =    -734.73320680 Ry
     estimated scf accuracy    <       0.00002746 Ry

     total magnetization       =     1.00 Bohr mag/cell
     absolute magnetization    =     1.07 Bohr mag/cell

     iteration # 20     ecut=    70.00 Ry     beta= 0.70
     Davidson diagonalization with overlap
     ethr =  4.53E-09,  avg # of iterations =  1.0

     negative rho (up, down):  6.682E-04 1.860E-03

     total cpu time spent up to now is     2283.8 secs

     total energy              =    -734.73320671 Ry
     Harris-Foulkes estimate   =    -734.73320705 Ry
     estimated scf accuracy    <       0.00003292 Ry

     total magnetization       =     1.00 Bohr mag/cell
     absolute magnetization    =     1.07 Bohr mag/cell

     iteration # 21     ecut=    70.00 Ry     beta= 0.70
     Davidson diagonalization with overlap
     ethr =  4.53E-09,  avg # of iterations =  1.5

     negative rho (up, down):  6.682E-04 1.859E-03

     total cpu time spent up to now is     2393.8 secs

     total energy              =    -734.73320690 Ry
     Harris-Foulkes estimate   =    -734.73320709 Ry
     estimated scf accuracy    <       0.00001463 Ry

     total magnetization       =     1.00 Bohr mag/cell
     absolute magnetization    =     1.07 Bohr mag/cell

     iteration # 22     ecut=    70.00 Ry     beta= 0.70
     Davidson diagonalization with overlap
     ethr =  4.53E-09,  avg # of iterations =  1.5

     negative rho (up, down):  6.684E-04 1.842E-03

     total cpu time spent up to now is     2502.8 secs

     total energy              =    -734.73320705 Ry
     Harris-Foulkes estimate   =    -734.73320724 Ry
     estimated scf accuracy    <       0.00000825 Ry

     total magnetization       =     1.00 Bohr mag/cell
     absolute magnetization    =     1.06 Bohr mag/cell

     iteration # 23     ecut=    70.00 Ry     beta= 0.70
     Davidson diagonalization with overlap
     ethr =  3.95E-09,  avg # of iterations =  1.5

     negative rho (up, down):  6.685E-04 1.840E-03

     total cpu time spent up to now is     2604.9 secs

     total energy              =    -734.73320722 Ry
     Harris-Foulkes estimate   =    -734.73320734 Ry
     estimated scf accuracy    <       0.00000355 Ry

     total magnetization       =     1.00 Bohr mag/cell
     absolute magnetization    =     1.06 Bohr mag/cell

     iteration # 24     ecut=    70.00 Ry     beta= 0.70
     Davidson diagonalization with overlap
     ethr =  1.70E-09,  avg # of iterations =  2.0

     negative rho (up, down):  6.685E-04 1.833E-03

     Magnetic moment per site:
     atom:    1    charge:    0.2140    magn:   -0.0001    constr:    0.0000
     atom:    2    charge:    0.2154    magn:    0.0003    constr:    0.0000
     atom:    3    charge:    1.7157    magn:    0.0015    constr:    0.0000
     atom:    4    charge:    1.7153    magn:    0.0016    constr:    0.0000
     atom:    5    charge:    1.7169    magn:   -0.0000    constr:    0.0000
     atom:    6    charge:    1.7146    magn:   -0.0001    constr:    0.0000
     atom:    7    charge:    1.7170    magn:    0.0000    constr:    0.0000
     atom:    8    charge:    1.7153    magn:    0.0018    constr:    0.0000
     atom:    9    charge:    1.7158    magn:    0.0017    constr:    0.0000
     atom:   10    charge:    1.7170    magn:   -0.0009    constr:    0.0000
     atom:   11    charge:    1.7160    magn:    0.0005    constr:    0.0000
     atom:   12    charge:    1.7171    magn:   -0.0009    constr:    0.0000
     atom:   13    charge:    1.7160    magn:    0.0005    constr:    0.0000
     atom:   14    charge:    1.7168    magn:   -0.0009    constr:    0.0000
     atom:   15    charge:    1.7128    magn:    0.0068    constr:    0.0000
     atom:   16    charge:    1.7105    magn:    0.0126    constr:    0.0000
     atom:   17    charge:    1.7214    magn:    0.0031    constr:    0.0000
     atom:   18    charge:    1.7106    magn:    0.0129    constr:    0.0000
     atom:   19    charge:    1.7131    magn:    0.0076    constr:    0.0000
     atom:   20    charge:    1.7168    magn:   -0.0010    constr:    0.0000
     atom:   21    charge:    1.7160    magn:    0.0006    constr:    0.0000
     atom:   22    charge:    1.7170    magn:   -0.0009    constr:    0.0000
     atom:   23    charge:    1.7158    magn:    0.0017    constr:    0.0000
     atom:   24    charge:    1.7152    magn:    0.0019    constr:    0.0000
     atom:   25    charge:    1.7128    magn:    0.0073    constr:    0.0000
     atom:   26    charge:    1.7125    magn:    0.0141    constr:    0.0000
     atom:   27    charge:    1.8185    magn:    0.0768    constr:    0.0000
     atom:   28    charge:    7.0295    magn:    0.1541    constr:    0.0000
     atom:   29    charge:    1.8188    magn:    0.0839    constr:    0.0000
     atom:   30    charge:    1.7106    magn:    0.0129    constr:    0.0000
     atom:   31    charge:    1.7131    magn:    0.0076    constr:    0.0000
     atom:   32    charge:    1.7153    magn:    0.0018    constr:    0.0000
     atom:   33    charge:    1.7170    magn:    0.0000    constr:    0.0000
     atom:   34    charge:    1.7153    magn:    0.0000    constr:    0.0000
     atom:   35    charge:    1.7169    magn:   -0.0000    constr:    0.0000
     atom:   36    charge:    1.7145    magn:   -0.0000    constr:    0.0000
     atom:   37    charge:    1.7222    magn:    0.0027    constr:    0.0000
     atom:   38    charge:    1.7125    magn:    0.0141    constr:    0.0000
     atom:   39    charge:    1.8185    magn:    0.0768    constr:    0.0000
     atom:   40    charge:    1.7105    magn:    0.0126    constr:    0.0000
     atom:   41    charge:    1.7214    magn:    0.0031    constr:    0.0000
     atom:   42    charge:    1.7146    magn:   -0.0001    constr:    0.0000
     atom:   43    charge:    1.7169    magn:   -0.0000    constr:    0.0000
     atom:   44    charge:    1.7153    magn:    0.0000    constr:    0.0000
     atom:   45    charge:    1.7210    magn:   -0.0007    constr:    0.0000
     atom:   46    charge:    1.7153    magn:    0.0000    constr:    0.0000
     atom:   47    charge:    1.7169    magn:   -0.0000    constr:    0.0000
     atom:   48    charge:    1.7152    magn:    0.0019    constr:    0.0000
     atom:   49    charge:    1.7128    magn:    0.0073    constr:    0.0000
     atom:   50    charge:    1.7168    magn:   -0.0009    constr:    0.0000
     atom:   51    charge:    1.7128    magn:    0.0068    constr:    0.0000
     atom:   52    charge:    1.7153    magn:    0.0016    constr:    0.0000

     total cpu time spent up to now is     2700.7 secs

     End of self-consistent calculation

 ------ SPIN UP ------------


          k = 0.0000 0.0000 0.0000 ( 87777 PWs)   bands (ev):

   -19.8613 -19.0203 -19.0165 -18.9242 -18.9188 -18.8604 -18.7923 -17.1891
   -17.1848 -17.1479 -17.1200 -17.1041 -16.8305 -16.3477 -16.3451 -16.2090
   -16.2003 -16.1781 -15.7918 -14.4475 -14.4438 -14.1475 -14.0511 -14.0503
   -13.5973 -13.1886 -13.1836 -13.0979 -12.9671 -12.9544 -12.6514 -12.3363
   -12.3350 -11.7355 -11.6335 -11.6264 -11.2056 -10.9573 -10.9553  -9.5453
    -9.3868  -9.3811  -9.2598  -9.2544  -9.2506  -9.2420  -9.2353  -9.1410
    -9.0817  -9.0775  -8.9814  -8.7367  -8.7341  -8.1049  -7.9139  -7.8706
    -7.6936  -7.6808  -7.5579  -7.5521  -7.3252  -6.9376  -6.8564  -6.8539
    -6.8359  -6.7975  -6.7324  -6.7316  -6.6377  -6.6348  -6.5914  -6.5845
    -6.5838  -6.5402  -6.4193  -6.4153  -5.9940  -5.6306  -5.6282  -5.0457
    -4.9739  -4.9587  -4.9047  -4.9031  -4.7784  -4.7416  -4.7014  -4.5604
    -4.5304  -4.3800  -3.8720  -3.8517  -3.8353  -3.8350  -3.7945  -3.6657
    -3.6195  -3.3747  -1.9045  -1.8429  -1.8419  -1.7646  -1.7513  -1.2522
    -0.8641  -0.8629   0.8880   0.9247   0.9320   1.0741   1.0769   1.4803
     2.4809   2.7685   2.7753   2.8157   2.9060   2.9097   3.3943   3.6382
     3.6571   3.7236   3.7302   3.7463   3.9234   4.1737

     occupation numbers 
     1.0000   1.0000   1.0000   1.0000   1.0000   1.0000   1.0000   1.0000
     1.0000   1.0000   1.0000   1.0000   1.0000   1.0000   1.0000   1.0000
     1.0000   1.0000   1.0000   1.0000   1.0000   1.0000   1.0000   1.0000
     1.0000   1.0000   1.0000   1.0000   1.0000   1.0000   1.0000   1.0000
     1.0000   1.0000   1.0000   1.0000   1.0000   1.0000   1.0000   1.0000
     1.0000   1.0000   1.0000   1.0000   1.0000   1.0000   1.0000   1.0000
     1.0000   1.0000   1.0000   1.0000   1.0000   1.0000   1.0000   1.0000
     1.0000   1.0000   1.0000   1.0000   1.0000   1.0000   1.0000   1.0000
     1.0000   1.0000   1.0000   1.0000   1.0000   1.0000   1.0000   1.0000
     1.0000   1.0000   1.0000   1.0000   1.0000   1.0000   1.0000   1.0000
     1.0000   1.0000   1.0000   1.0000   1.0000   1.0000   1.0000   1.0000
     1.0000   1.0000   1.0000   1.0000   1.0000   1.0000   1.0000   1.0000
     1.0000   1.0000   1.0000   1.0000   1.0000   1.0000   1.0000   1.0000
     0.5304   0.4696   0.0000   0.0000   0.0000   0.0000   0.0000   0.0000
     0.0000   0.0000   0.0000   0.0000   0.0000   0.0000   0.0000   0.0000
     0.0000   0.0000   0.0000   0.0000   0.0000   0.0000

 ------ SPIN DOWN ----------


          k = 0.0000 0.0000 0.0000 ( 87777 PWs)   bands (ev):

   -19.8357 -18.9868 -18.9844 -18.9176 -18.9118 -18.8564 -18.7182 -17.1484
   -17.1468 -17.1320 -17.0959 -17.0837 -16.7971 -16.3101 -16.3084 -16.1870
   -16.1795 -16.1709 -15.7169 -14.3587 -14.3530 -14.1232 -14.0429 -14.0422
   -13.5550 -13.1637 -13.1580 -13.0849 -12.9288 -12.9188 -12.5869 -12.2258
   -12.2243 -11.7158 -11.5984 -11.5926 -11.1012 -10.8273 -10.8267  -9.5044
    -9.3661  -9.3619  -9.2522  -9.2426  -9.2418  -9.2292  -9.0900  -9.0218
    -9.0117  -8.9728  -8.8562  -8.6943  -8.6935  -8.0817  -7.8897  -7.8493
    -7.6462  -7.6324  -7.5411  -7.5348  -7.2990  -6.8921  -6.8552  -6.8497
    -6.7985  -6.7955  -6.7187  -6.7147  -6.6160  -6.6127  -6.5837  -6.5805
    -6.5797  -6.5339  -6.3787  -6.3744  -5.9697  -5.6036  -5.5998  -5.0267
    -4.9641  -4.8854  -4.8832  -4.7958  -4.7735  -4.7404  -4.6752  -4.5507
    -4.5165  -4.3580  -3.8674  -3.8444  -3.8107  -3.8103  -3.7944  -3.6479
    -3.6012  -3.3337  -1.9006  -1.8408  -1.8399  -1.7433  -1.7290  -1.2154
    -0.4759  -0.4528   0.8910   0.9281   0.9356   1.0964   1.1006   1.4926
     2.4813   2.7709   2.7773   2.8165   2.9328   2.9363   3.4037   3.6392
     3.6606   3.7228   3.7291   3.7450   3.9283   4.1748

     occupation numbers 
     1.0000   1.0000   1.0000   1.0000   1.0000   1.0000   1.0000   1.0000
     1.0000   1.0000   1.0000   1.0000   1.0000   1.0000   1.0000   1.0000
     1.0000   1.0000   1.0000   1.0000   1.0000   1.0000   1.0000   1.0000
     1.0000   1.0000   1.0000   1.0000   1.0000   1.0000   1.0000   1.0000
     1.0000   1.0000   1.0000   1.0000   1.0000   1.0000   1.0000   1.0000
     1.0000   1.0000   1.0000   1.0000   1.0000   1.0000   1.0000   1.0000
     1.0000   1.0000   1.0000   1.0000   1.0000   1.0000   1.0000   1.0000
     1.0000   1.0000   1.0000   1.0000   1.0000   1.0000   1.0000   1.0000
     1.0000   1.0000   1.0000   1.0000   1.0000   1.0000   1.0000   1.0000
     1.0000   1.0000   1.0000   1.0000   1.0000   1.0000   1.0000   1.0000
     1.0000   1.0000   1.0000   1.0000   1.0000   1.0000   1.0000   1.0000
     1.0000   1.0000   1.0000   1.0000   1.0000   1.0000   1.0000   1.0000
     1.0000   1.0000   1.0000   1.0000   1.0000   1.0000   1.0000   1.0000
     0.0000   0.0000   0.0000   0.0000   0.0000   0.0000   0.0000   0.0000
     0.0000   0.0000   0.0000   0.0000   0.0000   0.0000   0.0000   0.0000
     0.0000   0.0000   0.0000   0.0000   0.0000   0.0000

     the Fermi energy is    -0.8616 ev

!    total energy              =    -734.73320701 Ry
     Harris-Foulkes estimate   =    -734.73320736 Ry
     estimated scf accuracy    <       0.00000073 Ry

     The total energy is the sum of the following terms:

     one-electron contribution =   -2510.09595420 Ry
     hartree contribution      =    1310.68746351 Ry
     xc contribution           =    -275.98984353 Ry
     ewald contribution        =     740.66545413 Ry
     smearing contrib. (-TS)   =      -0.00032693 Ry

     total magnetization       =     1.00 Bohr mag/cell
     absolute magnetization    =     1.06 Bohr mag/cell

     convergence has been achieved in  24 iterations

     Writing output data file cobre-sixhollow-1.8.save/

     init_run     :     75.29s CPU     76.70s WALL (       1 calls)
     electrons    :   2576.57s CPU   2622.85s WALL (       1 calls)

     Called by init_run:
     wfcinit      :     45.09s CPU     45.35s WALL (       1 calls)
     wfcinit:atom :      0.08s CPU      0.10s WALL (       2 calls)
     wfcinit:wfcr :     44.59s CPU     44.79s WALL (       2 calls)
     potinit      :     12.60s CPU     13.04s WALL (       1 calls)
     hinit0       :      8.11s CPU      8.15s WALL (       1 calls)

     Called by electrons:
     c_bands      :   1603.35s CPU   1610.74s WALL (      24 calls)
     sum_band     :    567.64s CPU    582.93s WALL (      24 calls)
     v_of_rho     :    196.27s CPU    206.70s WALL (      25 calls)
     v_h          :      2.13s CPU      2.18s WALL (      25 calls)
     v_xc         :    194.15s CPU    204.52s WALL (      25 calls)
     newd         :    206.37s CPU    220.23s WALL (      25 calls)
     mix_rho      :     12.01s CPU     12.19s WALL (      24 calls)

     Called by c_bands:
     init_us_2    :      5.08s CPU      5.13s WALL (      98 calls)
     cegterg      :   1591.12s CPU   1598.45s WALL (      48 calls)

     Called by sum_band:
     sum_band:bec :      0.04s CPU      0.04s WALL (      48 calls)
     addusdens    :    357.20s CPU    371.24s WALL (      24 calls)

     Called by *egterg:
     h_psi        :    860.92s CPU    866.21s WALL (     191 calls)
     s_psi        :    287.28s CPU    287.36s WALL (     191 calls)
     g_psi        :      0.83s CPU      0.83s WALL (     141 calls)
     cdiaghg      :     12.29s CPU     12.30s WALL (     189 calls)
     cegterg:over :    187.70s CPU    187.78s WALL (     141 calls)
     cegterg:upda :    109.02s CPU    109.62s WALL (     141 calls)
     cegterg:last :     84.37s CPU     84.38s WALL (      48 calls)

     Called by h_psi:
     h_psi:pot    :    859.90s CPU    864.24s WALL (     191 calls)
     h_psi:calbec :    287.00s CPU    287.07s WALL (     191 calls)
     vloc_psi     :    286.05s CPU    290.28s WALL (     191 calls)
     add_vuspsi   :    286.84s CPU    286.89s WALL (     191 calls)

     General routines
     calbec       :    414.15s CPU    414.25s WALL (     239 calls)
     fft          :    114.41s CPU    118.62s WALL (    1869 calls)
     ffts         :      2.05s CPU      2.13s WALL (      98 calls)
     fftw         :    304.11s CPU    308.67s WALL (   33488 calls)
     interpolate  :      4.81s CPU      4.92s WALL (      50 calls)

     Parallel routines
     fft_scatt_xy :     78.53s CPU     79.33s WALL (   35455 calls)
     fft_scatt_yz :    136.33s CPU    142.77s WALL (   35455 calls)

     PWSCF        :  44m13.31s CPU  45m 1.38s WALL


   This run was terminated on:  18:36:31   6Sep2022            

=------------------------------------------------------------------------------=
   JOB DONE.
=------------------------------------------------------------------------------=
