
     Program PWSCF v.6.4.1 starts on  6Sep2022 at 15:40:25 

     This program is part of the open-source Quantum ESPRESSO suite
     for quantum simulation of materials; please cite
         "P. Giannozzi et al., J. Phys.:Condens. Matter 21 395502 (2009);
         "P. Giannozzi et al., J. Phys.:Condens. Matter 29 465901 (2017);
          URL http://www.quantum-espresso.org", 
     in publications or presentations arising from this work. More details at
     http://www.quantum-espresso.org/quote

     Parallel version (MPI), running on     6 processors

     MPI processes distributed on     1 nodes
     R & G space division:  proc/nbgrp/npool/nimage =       6
     Reading input from distance-2.4.in

     Current dimensions of program PWSCF are:
     Max number of different atomic species (ntypx) = 10
     Max number of k-points (npk) =  40000
     Max angular momentum in pseudopotentials (lmaxx) =  3

     IMPORTANT: XC functional enforced from input :
     Exchange-correlation      = RVV10 ( 1  4 13  4 3 0)
     Any further DFT definition will be discarded
     Please, verify this is what you really want

               file H.pbe-rrkjus.UPF: wavefunction(s)  1S renormalized
               file Cu.pbe-dn-rrkjus_psl.1.0.0.UPF: wavefunction(s)  3D renormalized

     Subspace diagonalization in iterative solution of the eigenvalue problem:
     a serial algorithm will be used


     Parallelization info
     --------------------
     sticks:   dense  smooth     PW     G-vecs:    dense   smooth      PW
     Min        3051    1746    432               270999   117096   14629
     Max        3053    1747    437               271001   117099   14630
     Sum       18313   10477   2611              1626001   702581   87777



     bravais-lattice index     =            4
     lattice parameter (alat)  =      23.2937  a.u.
     unit-cell volume          =    8879.8548 (a.u.)^3
     number of atoms/cell      =           52
     number of atomic types    =            3
     number of electrons       =       209.00
     number of Kohn-Sham states=          126
     kinetic-energy cutoff     =      70.0000  Ry
     charge density cutoff     =     490.0000  Ry
     convergence threshold     =      1.0E-06
     mixing beta               =       0.7000
     number of iterations used =            8  plain     mixing
     Exchange-correlation      = RVV10 ( 1  4 13  4 3 0)

     celldm(1)=  23.293684  celldm(2)=   0.000000  celldm(3)=   0.811261
     celldm(4)=   0.000000  celldm(5)=   0.000000  celldm(6)=   0.000000

     crystal axes: (cart. coord. in units of alat)
               a(1) = (   1.000000   0.000000   0.000000 )  
               a(2) = (  -0.500000   0.866025   0.000000 )  
               a(3) = (   0.000000   0.000000   0.811261 )  

     reciprocal axes: (cart. coord. in units 2 pi/alat)
               b(1) = (  1.000000  0.577350 -0.000000 )  
               b(2) = (  0.000000  1.154701  0.000000 )  
               b(3) = (  0.000000 -0.000000  1.232649 )  


     PseudoPot. # 1 for H  read from file:
     /home/cristian/Escritorio/Proyecto_Grafeno/pseudopotenciales/H.pbe-rrkjus.UPF
     MD5 check sum: 7cc9d459525c9a0585f487a71c3c9563
     Pseudo is Ultrasoft, Zval =  1.0
     Generated by new atomic code, or converted to UPF format
     Using radial grid of 1061 points,  2 beta functions with: 
                l(1) =   0
                l(2) =   0
     Q(r) pseudized with 0 coefficients 


     PseudoPot. # 2 for C  read from file:
     /home/cristian/Escritorio/Proyecto_Grafeno/pseudopotenciales/C.pbe-n-rrkjus_psl.1.0.0.UPF
     MD5 check sum: 1fdd950c42eb37d8afe3dd2f8d12311e
     Pseudo is Ultrasoft + core correction, Zval =  4.0
     Generated using "atomic" code by A. Dal Corso v.6.3MaX
     Using radial grid of 1073 points,  4 beta functions with: 
                l(1) =   0
                l(2) =   0
                l(3) =   1
                l(4) =   1
     Q(r) pseudized with 0 coefficients 


     PseudoPot. # 3 for Cu read from file:
     /home/cristian/Escritorio/Proyecto_Grafeno/pseudopotenciales/Cu.pbe-dn-rrkjus_psl.1.0.0.UPF
     MD5 check sum: ba3d6c84e19846e79d48cdc68ff7152b
     Pseudo is Ultrasoft + core correction, Zval = 11.0
     Generated using "atomic" code by A. Dal Corso v.6.3
     Using radial grid of 1199 points,  6 beta functions with: 
                l(1) =   0
                l(2) =   0
                l(3) =   1
                l(4) =   1
                l(5) =   2
                l(6) =   2
     Q(r) pseudized with 0 coefficients 


     vdW kernel table read from file rVV10_kernel_table
     MD5 check sum: b8e2538accc0c0b3206b45ba4daaba6c

     atomic species   valence    mass     pseudopotential
        H              1.00     1.00794     H ( 1.00)
        C              4.00    12.01070     C ( 1.00)
        Cu            11.00    63.54600     Cu( 1.00)

     Starting magnetic structure 
     atomic species   magnetization
        H            0.500
        C            0.300
        Cu           0.800

      2 Sym. Ops. (no inversion) found


                                    s                        frac. trans.

      isym =  1     identity                                     

 cryst.   s( 1) = (     1          0          0      )
                  (     0          1          0      )
                  (     0          0          1      )

 cart.    s( 1) = (  1.0000000  0.0000000  0.0000000 )
                  (  0.0000000  1.0000000  0.0000000 )
                  (  0.0000000  0.0000000  1.0000000 )


      isym =  2     inv. 180 deg rotation - cryst. axis [1,1,0]  

 cryst.   s( 2) = (     0         -1          0      )
                  (    -1          0          0      )
                  (     0          0          1      )

 cart.    s( 2) = (  0.5000000 -0.8660254  0.0000000 )
                  ( -0.8660254 -0.5000000  0.0000000 )
                  (  0.0000000  0.0000000  1.0000000 )


     point group C_s (m)    
     there are  2 classes
     the character table:

       E     s    
A'     1.00  1.00
A''    1.00 -1.00

     the symmetry operations in each class and the name of the first element:

     E        1
          identity                                               
     s        2
          inv. 180 deg rotation - cryst. axis [1,1,0]            

   Cartesian axes

     site n.     atom                  positions (alat units)
         1           H   tau(   1) = (   0.3000000   0.4041452   0.1947027  )
         2           H   tau(   2) = (   0.3000000   0.4041452   0.2557154  )
         3           C   tau(   3) = (   0.0000000   0.0000000   0.0000000  )
         4           C   tau(   4) = (   0.0000000   0.1154701   0.0000000  )
         5           C   tau(   5) = (  -0.1000000   0.1732051   0.0000000  )
         6           C   tau(   6) = (  -0.1000000   0.2886751   0.0000000  )
         7           C   tau(   7) = (  -0.2000000   0.3464102   0.0000000  )
         8           C   tau(   8) = (  -0.2000000   0.4618802   0.0000000  )
         9           C   tau(   9) = (  -0.3000000   0.5196152   0.0000000  )
        10           C   tau(  10) = (  -0.3000000   0.6350853   0.0000000  )
        11           C   tau(  11) = (  -0.4000000   0.6928203   0.0000000  )
        12           C   tau(  12) = (  -0.4000000   0.8082904   0.0000000  )
        13           C   tau(  13) = (   0.2000000   0.0000000   0.0000000  )
        14           C   tau(  14) = (   0.2000000   0.1154701   0.0000000  )
        15           C   tau(  15) = (   0.1000000   0.1732051   0.0000000  )
        16           C   tau(  16) = (   0.1000000   0.2886751   0.0000000  )
        17           C   tau(  17) = (   0.0000000   0.3464102   0.0000000  )
        18           C   tau(  18) = (   0.0000000   0.4618802   0.0000000  )
        19           C   tau(  19) = (  -0.1000000   0.5196152   0.0000000  )
        20           C   tau(  20) = (  -0.1000000   0.6350853   0.0000000  )
        21           C   tau(  21) = (  -0.2000000   0.6928203   0.0000000  )
        22           C   tau(  22) = (  -0.2000000   0.8082904   0.0000000  )
        23           C   tau(  23) = (   0.4000000   0.0000000   0.0000000  )
        24           C   tau(  24) = (   0.4000000   0.1154701   0.0000000  )
        25           C   tau(  25) = (   0.3000000   0.1732051   0.0000000  )
        26           C   tau(  26) = (   0.3000000   0.2886751   0.0000000  )
        27           C   tau(  27) = (   0.2000000   0.3464102   0.0000000  )
        28           Cu  tau(  28) = (   0.2000000   0.4618802   0.0000000  )
        29           C   tau(  29) = (   0.1000000   0.5196152   0.0000000  )
        30           C   tau(  30) = (   0.1000000   0.6350853   0.0000000  )
        31           C   tau(  31) = (   0.0000000   0.6928203   0.0000000  )
        32           C   tau(  32) = (   0.0000000   0.8082904   0.0000000  )
        33           C   tau(  33) = (   0.6000000   0.0000000   0.0000000  )
        34           C   tau(  34) = (   0.6000000   0.1154701   0.0000000  )
        35           C   tau(  35) = (   0.5000000   0.1732051   0.0000000  )
        36           C   tau(  36) = (   0.5000000   0.2886751   0.0000000  )
        37           C   tau(  37) = (   0.4000000   0.3464102   0.0000000  )
        38           C   tau(  38) = (   0.4000000   0.4618802   0.0000000  )
        39           C   tau(  39) = (   0.3000000   0.5196152   0.0000000  )
        40           C   tau(  40) = (   0.3000000   0.6350853   0.0000000  )
        41           C   tau(  41) = (   0.2000000   0.6928203   0.0000000  )
        42           C   tau(  42) = (   0.2000000   0.8082904   0.0000000  )
        43           C   tau(  43) = (   0.8000000   0.0000000   0.0000000  )
        44           C   tau(  44) = (   0.8000000   0.1154701   0.0000000  )
        45           C   tau(  45) = (   0.7000000   0.1732051   0.0000000  )
        46           C   tau(  46) = (   0.7000000   0.2886751   0.0000000  )
        47           C   tau(  47) = (   0.6000000   0.3464102   0.0000000  )
        48           C   tau(  48) = (   0.6000000   0.4618802   0.0000000  )
        49           C   tau(  49) = (   0.5000000   0.5196152   0.0000000  )
        50           C   tau(  50) = (   0.5000000   0.6350853   0.0000000  )
        51           C   tau(  51) = (   0.4000000   0.6928203   0.0000000  )
        52           C   tau(  52) = (   0.4000000   0.8082904   0.0000000  )

   Crystallographic axes

     site n.     atom                  positions (cryst. coord.)
         1           H   tau(   1) = (  0.5333333  0.4666667  0.2400000  )
         2           H   tau(   2) = (  0.5333333  0.4666667  0.3152072  )
         3           C   tau(   3) = (  0.0000000  0.0000000  0.0000000  )
         4           C   tau(   4) = (  0.0666667  0.1333333  0.0000000  )
         5           C   tau(   5) = (  0.0000000  0.2000000  0.0000000  )
         6           C   tau(   6) = (  0.0666667  0.3333333  0.0000000  )
         7           C   tau(   7) = (  0.0000000  0.4000000  0.0000000  )
         8           C   tau(   8) = (  0.0666667  0.5333333  0.0000000  )
         9           C   tau(   9) = (  0.0000000  0.6000000  0.0000000  )
        10           C   tau(  10) = (  0.0666667  0.7333333  0.0000000  )
        11           C   tau(  11) = (  0.0000000  0.8000000  0.0000000  )
        12           C   tau(  12) = (  0.0666667  0.9333333  0.0000000  )
        13           C   tau(  13) = (  0.2000000  0.0000000  0.0000000  )
        14           C   tau(  14) = (  0.2666667  0.1333333  0.0000000  )
        15           C   tau(  15) = (  0.2000000  0.2000000  0.0000000  )
        16           C   tau(  16) = (  0.2666667  0.3333333  0.0000000  )
        17           C   tau(  17) = (  0.2000000  0.4000000  0.0000000  )
        18           C   tau(  18) = (  0.2666667  0.5333333  0.0000000  )
        19           C   tau(  19) = (  0.2000000  0.6000000  0.0000000  )
        20           C   tau(  20) = (  0.2666667  0.7333333  0.0000000  )
        21           C   tau(  21) = (  0.2000000  0.8000000  0.0000000  )
        22           C   tau(  22) = (  0.2666667  0.9333333  0.0000000  )
        23           C   tau(  23) = (  0.4000000  0.0000000  0.0000000  )
        24           C   tau(  24) = (  0.4666667  0.1333333  0.0000000  )
        25           C   tau(  25) = (  0.4000000  0.2000000  0.0000000  )
        26           C   tau(  26) = (  0.4666667  0.3333333  0.0000000  )
        27           C   tau(  27) = (  0.4000000  0.4000000  0.0000000  )
        28           Cu  tau(  28) = (  0.4666667  0.5333333  0.0000000  )
        29           C   tau(  29) = (  0.4000000  0.6000000  0.0000000  )
        30           C   tau(  30) = (  0.4666667  0.7333333  0.0000000  )
        31           C   tau(  31) = (  0.4000000  0.8000000  0.0000000  )
        32           C   tau(  32) = (  0.4666667  0.9333333  0.0000000  )
        33           C   tau(  33) = (  0.6000000  0.0000000  0.0000000  )
        34           C   tau(  34) = (  0.6666667  0.1333333  0.0000000  )
        35           C   tau(  35) = (  0.6000000  0.2000000  0.0000000  )
        36           C   tau(  36) = (  0.6666667  0.3333333  0.0000000  )
        37           C   tau(  37) = (  0.6000000  0.4000000  0.0000000  )
        38           C   tau(  38) = (  0.6666667  0.5333333  0.0000000  )
        39           C   tau(  39) = (  0.6000000  0.6000000  0.0000000  )
        40           C   tau(  40) = (  0.6666667  0.7333333  0.0000000  )
        41           C   tau(  41) = (  0.6000000  0.8000000  0.0000000  )
        42           C   tau(  42) = (  0.6666667  0.9333333  0.0000000  )
        43           C   tau(  43) = (  0.8000000  0.0000000  0.0000000  )
        44           C   tau(  44) = (  0.8666667  0.1333333  0.0000000  )
        45           C   tau(  45) = (  0.8000000  0.2000000  0.0000000  )
        46           C   tau(  46) = (  0.8666667  0.3333333  0.0000000  )
        47           C   tau(  47) = (  0.8000000  0.4000000  0.0000000  )
        48           C   tau(  48) = (  0.8666667  0.5333333  0.0000000  )
        49           C   tau(  49) = (  0.8000000  0.6000000  0.0000000  )
        50           C   tau(  50) = (  0.8666667  0.7333333  0.0000000  )
        51           C   tau(  51) = (  0.8000000  0.8000000  0.0000000  )
        52           C   tau(  52) = (  0.8666667  0.9333333  0.0000000  )

     number of k points=     1  Marzari-Vanderbilt smearing, width (Ry)=  0.0010
                       cart. coord. in units 2pi/alat
        k(    1) = (   0.0000000   0.0000000   0.0000000), wk =   1.0000000

                       cryst. coord.
        k(    1) = (   0.0000000   0.0000000   0.0000000), wk =   1.0000000

     Dense  grid:  1626001 G-vectors     FFT dimensions: ( 180, 180, 135)

     Smooth grid:   702581 G-vectors     FFT dimensions: ( 125, 125, 108)

     Dynamical RAM for                 wfc:      28.14 MB

     Dynamical RAM for     wfc (w. buffer):      84.42 MB

     Dynamical RAM for           str. fact:      12.41 MB

     Dynamical RAM for           local pot:       0.00 MB

     Dynamical RAM for          nlocal pot:      92.46 MB

     Dynamical RAM for                qrad:      19.73 MB

     Dynamical RAM for          rho,v,vnew:      58.92 MB

     Dynamical RAM for               rhoin:      19.64 MB

     Dynamical RAM for            rho*nmix:     132.32 MB

     Dynamical RAM for           G-vectors:      16.40 MB

     Dynamical RAM for          h,s,v(r/c):      11.63 MB

     Dynamical RAM for          <psi|beta>:       0.80 MB

     Dynamical RAM for                 psi:     112.56 MB

     Dynamical RAM for                hpsi:     112.56 MB

     Dynamical RAM for                spsi:     112.56 MB

     Dynamical RAM for      wfcinit/wfcrot:      93.45 MB

     Dynamical RAM for           addusdens:     975.89 MB

     Estimated static dynamical RAM per process >     486.96 MB

     Estimated max dynamical RAM per process >       1.43 GB

     Estimated total dynamical RAM >       8.57 GB
     Generating pointlists ...
     new r_m :   0.0252 (alat units)  0.5862 (a.u.) for type    1
     new r_m :   0.0476 (alat units)  1.1095 (a.u.) for type    2
     new r_m :   0.0476 (alat units)  1.1095 (a.u.) for type    3

     Check: negative core charge=   -0.000002

     Initial potential from superposition of free atoms

     starting charge  208.80532, renormalised to  209.00000

     negative rho (up, down):  6.644E-05 1.152E-02


---------------------------------------------------------------------------------
Carrying out rVV10 run using the following parameters:
Nqs =      20    Nr_points =    1024   r_max =   100.000
b_value =  6.30000    beta =  0.00901
     q_mesh =  0.00010000  0.00030000  0.00058939  0.00100810
               0.00161396  0.00249058  0.00375900  0.00559430
               0.00824984  0.01209221  0.01765183  0.02569619
               0.03733578  0.05417739  0.07854596  0.11380545
               0.16482331  0.23864234  0.34545298  0.50000000

Gradients computed in Reciprocal space

---------------------------------------------------------------------------------


     Starting wfcs are  207 randomized atomic wfcs

     total cpu time spent up to now is       82.4 secs

     Self-consistent Calculation

     iteration #  1     ecut=    70.00 Ry     beta= 0.70
     Davidson diagonalization with overlap
     ethr =  1.00E-02,  avg # of iterations =  4.0

     negative rho (up, down):  1.598E-04 1.189E-02

     total cpu time spent up to now is      226.1 secs

     total energy              =    -727.60769196 Ry
     Harris-Foulkes estimate   =    -734.88705866 Ry
     estimated scf accuracy    <      14.00135822 Ry

     total magnetization       =     7.00 Bohr mag/cell
     absolute magnetization    =     7.37 Bohr mag/cell

     iteration #  2     ecut=    70.00 Ry     beta= 0.70
     Davidson diagonalization with overlap
     ethr =  6.70E-03,  avg # of iterations =  4.0

     negative rho (up, down):  1.798E-04 1.049E-02

     total cpu time spent up to now is      356.5 secs

     total energy              =    -729.42085525 Ry
     Harris-Foulkes estimate   =    -744.27352814 Ry
     estimated scf accuracy    <      37.34919627 Ry

     total magnetization       =     3.00 Bohr mag/cell
     absolute magnetization    =     3.28 Bohr mag/cell

     iteration #  3     ecut=    70.00 Ry     beta= 0.70
     Davidson diagonalization with overlap
     ethr =  6.70E-03,  avg # of iterations =  4.5

     negative rho (up, down):  2.123E-04 8.238E-03

     total cpu time spent up to now is      467.1 secs

     total energy              =    -732.51419039 Ry
     Harris-Foulkes estimate   =    -735.81131639 Ry
     estimated scf accuracy    <       8.71885978 Ry

     total magnetization       =     1.00 Bohr mag/cell
     absolute magnetization    =     1.64 Bohr mag/cell

     iteration #  4     ecut=    70.00 Ry     beta= 0.70
     Davidson diagonalization with overlap
     ethr =  4.17E-03,  avg # of iterations =  3.0

     negative rho (up, down):  2.594E-04 6.698E-03

     total cpu time spent up to now is      579.3 secs

     total energy              =    -733.67841655 Ry
     Harris-Foulkes estimate   =    -735.19105168 Ry
     estimated scf accuracy    <       6.36111612 Ry

     total magnetization       =     3.00 Bohr mag/cell
     absolute magnetization    =     3.16 Bohr mag/cell

     iteration #  5     ecut=    70.00 Ry     beta= 0.70
     Davidson diagonalization with overlap
     ethr =  3.04E-03,  avg # of iterations =  3.5

     negative rho (up, down):  2.954E-04 9.158E-03

     total cpu time spent up to now is      679.3 secs

     total energy              =    -734.35606082 Ry
     Harris-Foulkes estimate   =    -735.08495990 Ry
     estimated scf accuracy    <       3.47901626 Ry

     total magnetization       =     1.00 Bohr mag/cell
     absolute magnetization    =     1.44 Bohr mag/cell

     iteration #  6     ecut=    70.00 Ry     beta= 0.70
     Davidson diagonalization with overlap
     ethr =  1.66E-03,  avg # of iterations =  2.5

     negative rho (up, down):  3.689E-04 1.421E-02

     total cpu time spent up to now is      776.5 secs

     total energy              =    -734.67272844 Ry
     Harris-Foulkes estimate   =    -734.79373387 Ry
     estimated scf accuracy    <       0.34269988 Ry

     total magnetization       =     1.00 Bohr mag/cell
     absolute magnetization    =     1.37 Bohr mag/cell

     iteration #  7     ecut=    70.00 Ry     beta= 0.70
     Davidson diagonalization with overlap
     ethr =  1.64E-04,  avg # of iterations =  9.0

     negative rho (up, down):  5.022E-04 1.008E-02

     total cpu time spent up to now is      892.6 secs

     total energy              =    -734.72751675 Ry
     Harris-Foulkes estimate   =    -734.79573442 Ry
     estimated scf accuracy    <       0.24061116 Ry

     total magnetization       =     1.00 Bohr mag/cell
     absolute magnetization    =     1.26 Bohr mag/cell

     iteration #  8     ecut=    70.00 Ry     beta= 0.70
     Davidson diagonalization with overlap
     ethr =  1.15E-04,  avg # of iterations =  3.0

     negative rho (up, down):  5.865E-04 4.191E-03

     total cpu time spent up to now is      993.7 secs

     total energy              =    -734.74968364 Ry
     Harris-Foulkes estimate   =    -734.76695036 Ry
     estimated scf accuracy    <       0.06398845 Ry

     total magnetization       =     1.00 Bohr mag/cell
     absolute magnetization    =     1.21 Bohr mag/cell

     iteration #  9     ecut=    70.00 Ry     beta= 0.70
     Davidson diagonalization with overlap
     ethr =  3.06E-05,  avg # of iterations =  2.5

     negative rho (up, down):  6.262E-04 2.962E-03

     total cpu time spent up to now is     1093.0 secs

     total energy              =    -734.75779844 Ry
     Harris-Foulkes estimate   =    -734.75975665 Ry
     estimated scf accuracy    <       0.03492276 Ry

     total magnetization       =     1.00 Bohr mag/cell
     absolute magnetization    =     1.18 Bohr mag/cell

     iteration # 10     ecut=    70.00 Ry     beta= 0.70
     Davidson diagonalization with overlap
     ethr =  1.67E-05,  avg # of iterations =  1.0

     negative rho (up, down):  6.537E-04 2.562E-03

     total cpu time spent up to now is     1188.7 secs

     total energy              =    -734.75860243 Ry
     Harris-Foulkes estimate   =    -734.75912837 Ry
     estimated scf accuracy    <       0.00211814 Ry

     total magnetization       =     1.00 Bohr mag/cell
     absolute magnetization    =     1.14 Bohr mag/cell

     iteration # 11     ecut=    70.00 Ry     beta= 0.70
     Davidson diagonalization with overlap
     ethr =  1.01E-06,  avg # of iterations =  6.0

     negative rho (up, down):  6.567E-04 2.366E-03

     total cpu time spent up to now is     1309.9 secs

     total energy              =    -734.75904809 Ry
     Harris-Foulkes estimate   =    -734.75926903 Ry
     estimated scf accuracy    <       0.00088466 Ry

     total magnetization       =     1.00 Bohr mag/cell
     absolute magnetization    =     1.11 Bohr mag/cell

     iteration # 12     ecut=    70.00 Ry     beta= 0.70
     Davidson diagonalization with overlap
     ethr =  4.23E-07,  avg # of iterations =  2.5

     negative rho (up, down):  6.547E-04 2.144E-03

     total cpu time spent up to now is     1415.9 secs

     total energy              =    -734.75918790 Ry
     Harris-Foulkes estimate   =    -734.75924347 Ry
     estimated scf accuracy    <       0.00047068 Ry

     total magnetization       =     1.00 Bohr mag/cell
     absolute magnetization    =     1.10 Bohr mag/cell

     iteration # 13     ecut=    70.00 Ry     beta= 0.70
     Davidson diagonalization with overlap
     ethr =  2.25E-07,  avg # of iterations =  2.0

     negative rho (up, down):  6.454E-04 1.656E-03

     total cpu time spent up to now is     1513.9 secs

     total energy              =    -734.75925150 Ry
     Harris-Foulkes estimate   =    -734.75924368 Ry
     estimated scf accuracy    <       0.00019760 Ry

     total magnetization       =     1.00 Bohr mag/cell
     absolute magnetization    =     1.09 Bohr mag/cell

     iteration # 14     ecut=    70.00 Ry     beta= 0.70
     Davidson diagonalization with overlap
     ethr =  9.45E-08,  avg # of iterations =  1.0

     negative rho (up, down):  6.428E-04 1.664E-03

     total cpu time spent up to now is     1610.3 secs

     total energy              =    -734.75925483 Ry
     Harris-Foulkes estimate   =    -734.75926158 Ry
     estimated scf accuracy    <       0.00044011 Ry

     total magnetization       =     1.00 Bohr mag/cell
     absolute magnetization    =     1.08 Bohr mag/cell

     iteration # 15     ecut=    70.00 Ry     beta= 0.70
     Davidson diagonalization with overlap
     ethr =  9.45E-08,  avg # of iterations =  1.5

     negative rho (up, down):  6.427E-04 1.649E-03

     total cpu time spent up to now is     1709.9 secs

     total energy              =    -734.75925603 Ry
     Harris-Foulkes estimate   =    -734.75926249 Ry
     estimated scf accuracy    <       0.00008173 Ry

     total magnetization       =     1.00 Bohr mag/cell
     absolute magnetization    =     1.08 Bohr mag/cell

     iteration # 16     ecut=    70.00 Ry     beta= 0.70
     Davidson diagonalization with overlap
     ethr =  3.91E-08,  avg # of iterations =  2.0

     negative rho (up, down):  6.406E-04 1.669E-03

     total cpu time spent up to now is     1810.8 secs

     total energy              =    -734.75926064 Ry
     Harris-Foulkes estimate   =    -734.75925999 Ry
     estimated scf accuracy    <       0.00003206 Ry

     total magnetization       =     1.00 Bohr mag/cell
     absolute magnetization    =     1.07 Bohr mag/cell

     iteration # 17     ecut=    70.00 Ry     beta= 0.70
     Davidson diagonalization with overlap
     ethr =  1.53E-08,  avg # of iterations =  2.0

     negative rho (up, down):  6.399E-04 1.674E-03

     total cpu time spent up to now is     1910.9 secs

     total energy              =    -734.75926300 Ry
     Harris-Foulkes estimate   =    -734.75926249 Ry
     estimated scf accuracy    <       0.00001857 Ry

     total magnetization       =     1.00 Bohr mag/cell
     absolute magnetization    =     1.07 Bohr mag/cell

     iteration # 18     ecut=    70.00 Ry     beta= 0.70
     Davidson diagonalization with overlap
     ethr =  8.89E-09,  avg # of iterations =  1.5

     negative rho (up, down):  6.396E-04 1.680E-03

     total cpu time spent up to now is     2008.6 secs

     total energy              =    -734.75926365 Ry
     Harris-Foulkes estimate   =    -734.75926357 Ry
     estimated scf accuracy    <       0.00002788 Ry

     total magnetization       =     1.00 Bohr mag/cell
     absolute magnetization    =     1.07 Bohr mag/cell

     iteration # 19     ecut=    70.00 Ry     beta= 0.70
     Davidson diagonalization with overlap
     ethr =  8.89E-09,  avg # of iterations =  1.0

     negative rho (up, down):  6.397E-04 1.671E-03

     total cpu time spent up to now is     2103.0 secs

     total energy              =    -734.75926388 Ry
     Harris-Foulkes estimate   =    -734.75926392 Ry
     estimated scf accuracy    <       0.00002063 Ry

     total magnetization       =     1.00 Bohr mag/cell
     absolute magnetization    =     1.07 Bohr mag/cell

     iteration # 20     ecut=    70.00 Ry     beta= 0.70
     Davidson diagonalization with overlap
     ethr =  8.89E-09,  avg # of iterations =  1.5

     negative rho (up, down):  6.397E-04 1.671E-03

     total cpu time spent up to now is     2197.5 secs

     total energy              =    -734.75926413 Ry
     Harris-Foulkes estimate   =    -734.75926435 Ry
     estimated scf accuracy    <       0.00001599 Ry

     total magnetization       =     1.00 Bohr mag/cell
     absolute magnetization    =     1.06 Bohr mag/cell

     iteration # 21     ecut=    70.00 Ry     beta= 0.70
     Davidson diagonalization with overlap
     ethr =  7.65E-09,  avg # of iterations =  1.0

     negative rho (up, down):  6.398E-04 1.673E-03

     total cpu time spent up to now is     2296.8 secs

     total energy              =    -734.75926427 Ry
     Harris-Foulkes estimate   =    -734.75926435 Ry
     estimated scf accuracy    <       0.00000715 Ry

     total magnetization       =     1.00 Bohr mag/cell
     absolute magnetization    =     1.06 Bohr mag/cell

     iteration # 22     ecut=    70.00 Ry     beta= 0.70
     Davidson diagonalization with overlap
     ethr =  3.42E-09,  avg # of iterations =  2.0

     negative rho (up, down):  6.402E-04 1.658E-03

     total cpu time spent up to now is     2397.3 secs

     total energy              =    -734.75926439 Ry
     Harris-Foulkes estimate   =    -734.75926450 Ry
     estimated scf accuracy    <       0.00000392 Ry

     total magnetization       =     1.00 Bohr mag/cell
     absolute magnetization    =     1.06 Bohr mag/cell

     iteration # 23     ecut=    70.00 Ry     beta= 0.70
     Davidson diagonalization with overlap
     ethr =  1.88E-09,  avg # of iterations =  1.5

     negative rho (up, down):  6.402E-04 1.654E-03

     total cpu time spent up to now is     2499.0 secs

     total energy              =    -734.75926453 Ry
     Harris-Foulkes estimate   =    -734.75926462 Ry
     estimated scf accuracy    <       0.00000222 Ry

     total magnetization       =     1.00 Bohr mag/cell
     absolute magnetization    =     1.06 Bohr mag/cell

     iteration # 24     ecut=    70.00 Ry     beta= 0.70
     Davidson diagonalization with overlap
     ethr =  1.06E-09,  avg # of iterations =  2.0

     negative rho (up, down):  6.401E-04 1.658E-03

     Magnetic moment per site:
     atom:    1    charge:    0.2115    magn:   -0.0000    constr:    0.0000
     atom:    2    charge:    0.2120    magn:    0.0000    constr:    0.0000
     atom:    3    charge:    1.7157    magn:    0.0015    constr:    0.0000
     atom:    4    charge:    1.7153    magn:    0.0017    constr:    0.0000
     atom:    5    charge:    1.7169    magn:    0.0000    constr:    0.0000
     atom:    6    charge:    1.7146    magn:   -0.0001    constr:    0.0000
     atom:    7    charge:    1.7170    magn:    0.0000    constr:    0.0000
     atom:    8    charge:    1.7153    magn:    0.0018    constr:    0.0000
     atom:    9    charge:    1.7158    magn:    0.0017    constr:    0.0000
     atom:   10    charge:    1.7170    magn:   -0.0009    constr:    0.0000
     atom:   11    charge:    1.7160    magn:    0.0005    constr:    0.0000
     atom:   12    charge:    1.7170    magn:   -0.0009    constr:    0.0000
     atom:   13    charge:    1.7160    magn:    0.0005    constr:    0.0000
     atom:   14    charge:    1.7168    magn:   -0.0009    constr:    0.0000
     atom:   15    charge:    1.7129    magn:    0.0069    constr:    0.0000
     atom:   16    charge:    1.7106    magn:    0.0128    constr:    0.0000
     atom:   17    charge:    1.7214    magn:    0.0031    constr:    0.0000
     atom:   18    charge:    1.7107    magn:    0.0130    constr:    0.0000
     atom:   19    charge:    1.7130    magn:    0.0075    constr:    0.0000
     atom:   20    charge:    1.7168    magn:   -0.0010    constr:    0.0000
     atom:   21    charge:    1.7160    magn:    0.0006    constr:    0.0000
     atom:   22    charge:    1.7170    magn:   -0.0009    constr:    0.0000
     atom:   23    charge:    1.7158    magn:    0.0017    constr:    0.0000
     atom:   24    charge:    1.7153    magn:    0.0018    constr:    0.0000
     atom:   25    charge:    1.7129    magn:    0.0073    constr:    0.0000
     atom:   26    charge:    1.7112    magn:    0.0138    constr:    0.0000
     atom:   27    charge:    1.8171    magn:    0.0778    constr:    0.0000
     atom:   28    charge:    7.0286    magn:    0.1547    constr:    0.0000
     atom:   29    charge:    1.8182    magn:    0.0828    constr:    0.0000
     atom:   30    charge:    1.7107    magn:    0.0130    constr:    0.0000
     atom:   31    charge:    1.7130    magn:    0.0075    constr:    0.0000
     atom:   32    charge:    1.7153    magn:    0.0018    constr:    0.0000
     atom:   33    charge:    1.7170    magn:    0.0000    constr:    0.0000
     atom:   34    charge:    1.7153    magn:    0.0000    constr:    0.0000
     atom:   35    charge:    1.7169    magn:   -0.0000    constr:    0.0000
     atom:   36    charge:    1.7146    magn:   -0.0000    constr:    0.0000
     atom:   37    charge:    1.7214    magn:    0.0028    constr:    0.0000
     atom:   38    charge:    1.7112    magn:    0.0138    constr:    0.0000
     atom:   39    charge:    1.8171    magn:    0.0778    constr:    0.0000
     atom:   40    charge:    1.7106    magn:    0.0128    constr:    0.0000
     atom:   41    charge:    1.7214    magn:    0.0031    constr:    0.0000
     atom:   42    charge:    1.7146    magn:   -0.0001    constr:    0.0000
     atom:   43    charge:    1.7169    magn:    0.0000    constr:    0.0000
     atom:   44    charge:    1.7153    magn:    0.0000    constr:    0.0000
     atom:   45    charge:    1.7211    magn:   -0.0007    constr:    0.0000
     atom:   46    charge:    1.7153    magn:    0.0000    constr:    0.0000
     atom:   47    charge:    1.7169    magn:   -0.0000    constr:    0.0000
     atom:   48    charge:    1.7153    magn:    0.0018    constr:    0.0000
     atom:   49    charge:    1.7129    magn:    0.0073    constr:    0.0000
     atom:   50    charge:    1.7168    magn:   -0.0009    constr:    0.0000
     atom:   51    charge:    1.7129    magn:    0.0069    constr:    0.0000
     atom:   52    charge:    1.7153    magn:    0.0017    constr:    0.0000

     total cpu time spent up to now is     2596.1 secs

     End of self-consistent calculation

 ------ SPIN UP ------------


          k = 0.0000 0.0000 0.0000 ( 87777 PWs)   bands (ev):

   -19.8513 -19.0091 -19.0086 -18.9143 -18.9127 -18.8518 -18.7772 -17.1799
   -17.1786 -17.1414 -17.1003 -17.0975 -16.8200 -16.3387 -16.3383 -16.1939
   -16.1928 -16.1706 -15.7799 -14.4358 -14.4357 -14.1398 -14.0439 -14.0436
   -13.5877 -13.1772 -13.1764 -13.0900 -12.9490 -12.9474 -12.6423 -12.3278
   -12.3269 -11.7250 -11.6195 -11.6188 -11.1973 -10.9489 -10.9480  -9.5353
    -9.3748  -9.3740  -9.2527  -9.2432  -9.2431  -9.2338  -9.1351  -9.1251
    -9.0720  -9.0707  -8.9724  -8.7275  -8.7273  -7.9925  -7.9066  -7.8524
    -7.6755  -7.6733  -7.5445  -7.5443  -7.0603  -6.9161  -6.8502  -6.8464
    -6.8279  -6.7900  -6.7248  -6.7235  -6.6290  -6.6283  -6.5841  -6.5775
    -6.5769  -6.5320  -6.4097  -6.4076  -6.3046  -5.6232  -5.6231  -5.0385
    -5.0031  -4.9666  -4.8962  -4.8954  -4.7714  -4.7344  -4.7276  -4.5517
    -4.5415  -4.4671  -3.8620  -3.8588  -3.8284  -3.8279  -3.7914  -3.6527
    -3.6424  -3.4119  -1.8939  -1.8358  -1.8354  -1.7476  -1.7429  -1.2373
    -0.8513  -0.8506   0.8998   0.9348   0.9390   1.0838   1.0839   1.4871
     2.4913   2.7796   2.7845   2.8260   2.9161   2.9201   3.3984   3.6125
     3.6300   3.7249   3.7311   3.7488   3.9047   4.2495

     occupation numbers 
     1.0000   1.0000   1.0000   1.0000   1.0000   1.0000   1.0000   1.0000
     1.0000   1.0000   1.0000   1.0000   1.0000   1.0000   1.0000   1.0000
     1.0000   1.0000   1.0000   1.0000   1.0000   1.0000   1.0000   1.0000
     1.0000   1.0000   1.0000   1.0000   1.0000   1.0000   1.0000   1.0000
     1.0000   1.0000   1.0000   1.0000   1.0000   1.0000   1.0000   1.0000
     1.0000   1.0000   1.0000   1.0000   1.0000   1.0000   1.0000   1.0000
     1.0000   1.0000   1.0000   1.0000   1.0000   1.0000   1.0000   1.0000
     1.0000   1.0000   1.0000   1.0000   1.0000   1.0000   1.0000   1.0000
     1.0000   1.0000   1.0000   1.0000   1.0000   1.0000   1.0000   1.0000
     1.0000   1.0000   1.0000   1.0000   1.0000   1.0000   1.0000   1.0000
     1.0000   1.0000   1.0000   1.0000   1.0000   1.0000   1.0000   1.0000
     1.0000   1.0000   1.0000   1.0000   1.0000   1.0000   1.0000   1.0000
     1.0000   1.0000   1.0000   1.0000   1.0000   1.0000   1.0000   1.0000
     0.5206   0.4794   0.0000   0.0000   0.0000   0.0000   0.0000   0.0000
     0.0000   0.0000   0.0000   0.0000   0.0000   0.0000   0.0000   0.0000
     0.0000   0.0000   0.0000   0.0000   0.0000   0.0000

 ------ SPIN DOWN ----------


          k = 0.0000 0.0000 0.0000 ( 87777 PWs)   bands (ev):

   -19.8261 -18.9770 -18.9756 -18.9076 -18.9058 -18.8486 -18.7020 -17.1400
   -17.1394 -17.1254 -17.0776 -17.0765 -16.7865 -16.3012 -16.3012 -16.1719
   -16.1717 -16.1636 -15.7045 -14.3465 -14.3450 -14.1155 -14.0358 -14.0355
   -13.5454 -13.1519 -13.1509 -13.0770 -12.9116 -12.9114 -12.5776 -12.2168
   -12.2158 -11.7053 -11.5847 -11.5844 -11.0922 -10.8191 -10.8179  -9.4944
    -9.3551  -9.3547  -9.2451  -9.2344  -9.2343  -9.2215  -9.0158  -9.0146
    -8.9623  -8.9555  -8.8476  -8.6864  -8.6855  -7.9806  -7.8823  -7.8305
    -7.6266  -7.6247  -7.5269  -7.5268  -7.0337  -6.8762  -6.8490  -6.8411
    -6.7906  -6.7874  -6.7119  -6.7053  -6.6071  -6.6063  -6.5763  -6.5735
    -6.5729  -6.5257  -6.3691  -6.3668  -6.2896  -5.5960  -5.5952  -5.0195
    -4.9568  -4.8764  -4.8755  -4.7957  -4.7666  -4.7333  -4.7233  -4.5420
    -4.5315  -4.4509  -3.8577  -3.8545  -3.8028  -3.8027  -3.7922  -3.6346
    -3.6241  -3.3733  -1.8901  -1.8337  -1.8333  -1.7260  -1.7206  -1.2010
    -0.4580  -0.4417   0.9029   0.9381   0.9424   1.1066   1.1075   1.4993
     2.4917   2.7820   2.7866   2.8270   2.9434   2.9469   3.4077   3.6136
     3.6334   3.7240   3.7302   3.7475   3.9102   4.2493

     occupation numbers 
     1.0000   1.0000   1.0000   1.0000   1.0000   1.0000   1.0000   1.0000
     1.0000   1.0000   1.0000   1.0000   1.0000   1.0000   1.0000   1.0000
     1.0000   1.0000   1.0000   1.0000   1.0000   1.0000   1.0000   1.0000
     1.0000   1.0000   1.0000   1.0000   1.0000   1.0000   1.0000   1.0000
     1.0000   1.0000   1.0000   1.0000   1.0000   1.0000   1.0000   1.0000
     1.0000   1.0000   1.0000   1.0000   1.0000   1.0000   1.0000   1.0000
     1.0000   1.0000   1.0000   1.0000   1.0000   1.0000   1.0000   1.0000
     1.0000   1.0000   1.0000   1.0000   1.0000   1.0000   1.0000   1.0000
     1.0000   1.0000   1.0000   1.0000   1.0000   1.0000   1.0000   1.0000
     1.0000   1.0000   1.0000   1.0000   1.0000   1.0000   1.0000   1.0000
     1.0000   1.0000   1.0000   1.0000   1.0000   1.0000   1.0000   1.0000
     1.0000   1.0000   1.0000   1.0000   1.0000   1.0000   1.0000   1.0000
     1.0000   1.0000   1.0000   1.0000   1.0000   1.0000   1.0000   1.0000
     0.0000   0.0000   0.0000   0.0000   0.0000   0.0000   0.0000   0.0000
     0.0000   0.0000   0.0000   0.0000   0.0000   0.0000   0.0000   0.0000
     0.0000   0.0000   0.0000   0.0000   0.0000   0.0000

     the Fermi energy is    -0.8491 ev

!    total energy              =    -734.75926439 Ry
     Harris-Foulkes estimate   =    -734.75926465 Ry
     estimated scf accuracy    <       0.00000053 Ry

     The total energy is the sum of the following terms:

     one-electron contribution =   -2496.43487107 Ry
     hartree contribution      =    1303.88259956 Ry
     xc contribution           =    -275.93842082 Ry
     ewald contribution        =     733.73175554 Ry
     smearing contrib. (-TS)   =      -0.00032760 Ry

     total magnetization       =     1.00 Bohr mag/cell
     absolute magnetization    =     1.06 Bohr mag/cell

     convergence has been achieved in  24 iterations

     Writing output data file cobre-sixhollow-2.4.save/

     init_run     :     79.93s CPU     81.30s WALL (       1 calls)
     electrons    :   2470.20s CPU   2513.81s WALL (       1 calls)

     Called by init_run:
     wfcinit      :     47.39s CPU     47.66s WALL (       1 calls)
     wfcinit:atom :      0.06s CPU      0.10s WALL (       2 calls)
     wfcinit:wfcr :     46.96s CPU     47.14s WALL (       2 calls)
     potinit      :     12.89s CPU     13.32s WALL (       1 calls)
     hinit0       :      8.67s CPU      8.70s WALL (       1 calls)

     Called by electrons:
     c_bands      :   1542.87s CPU   1550.27s WALL (      24 calls)
     sum_band     :    539.10s CPU    553.88s WALL (      24 calls)
     v_of_rho     :    189.15s CPU    198.43s WALL (      25 calls)
     v_h          :      2.00s CPU      2.05s WALL (      25 calls)
     v_xc         :    187.15s CPU    196.38s WALL (      25 calls)
     newd         :    199.01s CPU    211.78s WALL (      25 calls)
     mix_rho      :     11.33s CPU     11.50s WALL (      24 calls)

     Called by c_bands:
     init_us_2    :      4.86s CPU      4.91s WALL (      98 calls)
     cegterg      :   1531.40s CPU   1538.76s WALL (      48 calls)

     Called by sum_band:
     sum_band:bec :      0.04s CPU      0.04s WALL (      48 calls)
     addusdens    :    340.50s CPU    354.08s WALL (      24 calls)

     Called by *egterg:
     h_psi        :    823.96s CPU    829.05s WALL (     179 calls)
     s_psi        :    277.61s CPU    277.67s WALL (     179 calls)
     g_psi        :      0.83s CPU      0.83s WALL (     129 calls)
     cdiaghg      :     11.42s CPU     11.42s WALL (     177 calls)
     cegterg:over :    184.29s CPU    184.34s WALL (     129 calls)
     cegterg:upda :    107.63s CPU    108.24s WALL (     129 calls)
     cegterg:last :     82.28s CPU     82.28s WALL (      48 calls)

     Called by h_psi:
     h_psi:pot    :    823.14s CPU    827.14s WALL (     179 calls)
     h_psi:calbec :    276.35s CPU    276.43s WALL (     179 calls)
     vloc_psi     :    269.56s CPU    273.46s WALL (     179 calls)
     add_vuspsi   :    277.23s CPU    277.26s WALL (     179 calls)

     General routines
     calbec       :    397.59s CPU    397.69s WALL (     227 calls)
     fft          :    108.33s CPU    112.07s WALL (    1869 calls)
     ffts         :      1.91s CPU      1.97s WALL (      98 calls)
     fftw         :    285.07s CPU    289.29s WALL (   33530 calls)
     interpolate  :      4.52s CPU      4.66s WALL (      50 calls)

     Parallel routines
     fft_scatt_xy :     74.49s CPU     75.18s WALL (   35497 calls)
     fft_scatt_yz :    122.65s CPU    128.48s WALL (   35497 calls)

     PWSCF        :  42m31.47s CPU  43m16.78s WALL


   This run was terminated on:  16:23:41   6Sep2022            

=------------------------------------------------------------------------------=
   JOB DONE.
=------------------------------------------------------------------------------=
