
     Program PWSCF v.6.4.1 starts on 26May2022 at 19: 4:22 

     This program is part of the open-source Quantum ESPRESSO suite
     for quantum simulation of materials; please cite
         "P. Giannozzi et al., J. Phys.:Condens. Matter 21 395502 (2009);
         "P. Giannozzi et al., J. Phys.:Condens. Matter 29 465901 (2017);
          URL http://www.quantum-espresso.org", 
     in publications or presentations arising from this work. More details at
     http://www.quantum-espresso.org/quote

     Parallel version (MPI), running on     6 processors

     MPI processes distributed on     1 nodes
     R & G space division:  proc/nbgrp/npool/nimage =       6
     Reading input from c-3.386.in

     Current dimensions of program PWSCF are:
     Max number of different atomic species (ntypx) = 10
     Max number of k-points (npk) =  40000
     Max angular momentum in pseudopotentials (lmaxx) =  3

     Subspace diagonalization in iterative solution of the eigenvalue problem:
     a serial algorithm will be used

     Message from routine setup:
     DEPRECATED: symmetry with ibrav=0, use correct ibrav instead

     Parallelization info
     --------------------
     sticks:   dense  smooth     PW     G-vecs:    dense   smooth      PW
     Min         304     173     50                 9727     4223     688
     Max         306     174     52                 9728     4224     691
     Sum        1829    1041    305                58365    25341    4139



     bravais-lattice index     =            0
     lattice parameter (alat)  =       6.3986  a.u.
     unit-cell volume          =     261.9736 (a.u.)^3
     number of atoms/cell      =            8
     number of atomic types    =            1
     number of electrons       =        32.00
     number of Kohn-Sham states=           20
     kinetic-energy cutoff     =      80.0000  Ry
     charge density cutoff     =     560.0000  Ry
     convergence threshold     =      1.0E-06
     mixing beta               =       0.7000
     number of iterations used =            8  plain     mixing
     Exchange-correlation      = PBE ( 1  4  3  4 0 0)

     celldm(1)=   6.398613  celldm(2)=   0.000000  celldm(3)=   0.000000
     celldm(4)=   0.000000  celldm(5)=   0.000000  celldm(6)=   0.000000

     crystal axes: (cart. coord. in units of alat)
               a(1) = (   1.000000   0.000000   0.000000 )  
               a(2) = (   0.000000   1.000000   0.000000 )  
               a(3) = (   0.000000   0.000000   1.000000 )  

     reciprocal axes: (cart. coord. in units 2 pi/alat)
               b(1) = (  1.000000  0.000000  0.000000 )  
               b(2) = (  0.000000  1.000000  0.000000 )  
               b(3) = (  0.000000  0.000000  1.000000 )  


     PseudoPot. # 1 for C  read from file:
     /home/cristian/Escritorio/Proyecto_Grafeno/pseudopotenciales/C.pbe-n-rrkjus_psl.1.0.0.UPF
     MD5 check sum: 1fdd950c42eb37d8afe3dd2f8d12311e
     Pseudo is Ultrasoft + core correction, Zval =  4.0
     Generated using "atomic" code by A. Dal Corso v.6.3MaX
     Using radial grid of 1073 points,  4 beta functions with: 
                l(1) =   0
                l(2) =   0
                l(3) =   1
                l(4) =   1
     Q(r) pseudized with 0 coefficients 


     atomic species   valence    mass     pseudopotential
        C              4.00    12.01100     C ( 1.00)

      6 Sym. Ops. (no inversion) found


                                    s                        frac. trans.

      isym =  1     identity                                     

 cryst.   s( 1) = (     1          0          0      )
                  (     0          1          0      )
                  (     0          0          1      )

 cart.    s( 1) = (  1.0000000  0.0000000  0.0000000 )
                  (  0.0000000  1.0000000  0.0000000 )
                  (  0.0000000  0.0000000  1.0000000 )


      isym =  2     120 deg rotation - cart. axis [-1,-1,-1]     

 cryst.   s( 2) = (     0          0          1      )
                  (     1          0          0      )
                  (     0          1          0      )

 cart.    s( 2) = (  0.0000000  1.0000000  0.0000000 )
                  (  0.0000000  0.0000000  1.0000000 )
                  (  1.0000000  0.0000000  0.0000000 )


      isym =  3     120 deg rotation - cart. axis [1,1,1]        

 cryst.   s( 3) = (     0          1          0      )
                  (     0          0          1      )
                  (     1          0          0      )

 cart.    s( 3) = (  0.0000000  0.0000000  1.0000000 )
                  (  1.0000000  0.0000000  0.0000000 )
                  (  0.0000000  1.0000000  0.0000000 )


      isym =  4     inv. 180 deg rotation - cart. axis [1,-1,0]  

 cryst.   s( 4) = (     0          1          0      )
                  (     1          0          0      )
                  (     0          0          1      )

 cart.    s( 4) = (  0.0000000  1.0000000  0.0000000 )
                  (  1.0000000  0.0000000  0.0000000 )
                  (  0.0000000  0.0000000  1.0000000 )


      isym =  5     inv. 180 deg rotation - cart. axis [-1,0,1]  

 cryst.   s( 5) = (     0          0          1      )
                  (     0          1          0      )
                  (     1          0          0      )

 cart.    s( 5) = (  0.0000000  0.0000000  1.0000000 )
                  (  0.0000000  1.0000000  0.0000000 )
                  (  1.0000000  0.0000000  0.0000000 )


      isym =  6     inv. 180 deg rotation - cart. axis [0,1,-1]  

 cryst.   s( 6) = (     1          0          0      )
                  (     0          0          1      )
                  (     0          1          0      )

 cart.    s( 6) = (  1.0000000  0.0000000  0.0000000 )
                  (  0.0000000  0.0000000  1.0000000 )
                  (  0.0000000  1.0000000  0.0000000 )


   Cartesian axes

     site n.     atom                  positions (alat units)
         1           C   tau(   1) = (   0.0000000   0.0000000   0.0000000  )
         2           C   tau(   2) = (   0.5265800   0.5265800   0.0000000  )
         3           C   tau(   3) = (   0.0000000   0.5265800   0.5265800  )
         4           C   tau(   4) = (   0.5265800   0.0000000   0.5265800  )
         5           C   tau(   5) = (   0.2632900   0.2632900   0.2632900  )
         6           C   tau(   6) = (   0.7898701   0.7898701   0.2632900  )
         7           C   tau(   7) = (   0.2632900   0.7898701   0.7898701  )
         8           C   tau(   8) = (   0.7898701   0.2632900   0.7898701  )

   Crystallographic axes

     site n.     atom                  positions (cryst. coord.)
         1           C   tau(   1) = (  0.0000000  0.0000000  0.0000000  )
         2           C   tau(   2) = (  0.5265800  0.5265800  0.0000000  )
         3           C   tau(   3) = (  0.0000000  0.5265800  0.5265800  )
         4           C   tau(   4) = (  0.5265800  0.0000000  0.5265800  )
         5           C   tau(   5) = (  0.2632900  0.2632900  0.2632900  )
         6           C   tau(   6) = (  0.7898701  0.7898701  0.2632900  )
         7           C   tau(   7) = (  0.2632900  0.7898701  0.7898701  )
         8           C   tau(   8) = (  0.7898701  0.2632900  0.7898701  )

     number of k points=    65  Marzari-Vanderbilt smearing, width (Ry)=  0.0200
                       cart. coord. in units 2pi/alat
        k(    1) = (   0.0000000   0.0000000   0.0000000), wk =   0.0039062
        k(    2) = (   0.0000000   0.0000000   0.1250000), wk =   0.0234375
        k(    3) = (   0.0000000   0.0000000   0.2500000), wk =   0.0234375
        k(    4) = (   0.0000000   0.0000000   0.3750000), wk =   0.0234375
        k(    5) = (   0.0000000   0.0000000  -0.5000000), wk =   0.0117188
        k(    6) = (   0.0000000   0.1250000   0.1250000), wk =   0.0234375
        k(    7) = (   0.0000000   0.1250000   0.2500000), wk =   0.0468750
        k(    8) = (   0.0000000   0.1250000   0.3750000), wk =   0.0468750
        k(    9) = (   0.0000000   0.1250000  -0.5000000), wk =   0.0468750
        k(   10) = (   0.0000000   0.2500000   0.2500000), wk =   0.0234375
        k(   11) = (   0.0000000   0.2500000   0.3750000), wk =   0.0468750
        k(   12) = (   0.0000000   0.2500000  -0.5000000), wk =   0.0468750
        k(   13) = (   0.0000000   0.3750000   0.3750000), wk =   0.0234375
        k(   14) = (   0.0000000   0.3750000  -0.5000000), wk =   0.0468750
        k(   15) = (   0.0000000  -0.5000000  -0.5000000), wk =   0.0117188
        k(   16) = (   0.1250000   0.1250000   0.1250000), wk =   0.0078125
        k(   17) = (   0.1250000   0.1250000   0.2500000), wk =   0.0234375
        k(   18) = (   0.1250000   0.1250000   0.3750000), wk =   0.0234375
        k(   19) = (   0.1250000   0.1250000  -0.5000000), wk =   0.0234375
        k(   20) = (   0.1250000   0.2500000   0.2500000), wk =   0.0234375
        k(   21) = (   0.1250000   0.2500000   0.3750000), wk =   0.0468750
        k(   22) = (   0.1250000   0.2500000  -0.5000000), wk =   0.0468750
        k(   23) = (   0.1250000   0.3750000   0.3750000), wk =   0.0234375
        k(   24) = (   0.1250000   0.3750000  -0.5000000), wk =   0.0468750
        k(   25) = (   0.1250000  -0.5000000  -0.5000000), wk =   0.0234375
        k(   26) = (   0.2500000   0.2500000   0.2500000), wk =   0.0078125
        k(   27) = (   0.2500000   0.2500000   0.3750000), wk =   0.0234375
        k(   28) = (   0.2500000   0.2500000  -0.5000000), wk =   0.0234375
        k(   29) = (   0.2500000   0.3750000   0.3750000), wk =   0.0234375
        k(   30) = (   0.2500000   0.3750000  -0.5000000), wk =   0.0468750
        k(   31) = (   0.2500000  -0.5000000  -0.5000000), wk =   0.0234375
        k(   32) = (   0.3750000   0.3750000   0.3750000), wk =   0.0078125
        k(   33) = (   0.3750000   0.3750000  -0.5000000), wk =   0.0234375
        k(   34) = (   0.3750000  -0.5000000  -0.5000000), wk =   0.0234375
        k(   35) = (  -0.5000000  -0.5000000  -0.5000000), wk =   0.0039062
        k(   36) = (  -0.1250000   0.0000000   0.1250000), wk =   0.0234375
        k(   37) = (  -0.1250000   0.0000000   0.2500000), wk =   0.0468750
        k(   38) = (  -0.1250000   0.0000000   0.3750000), wk =   0.0468750
        k(   39) = (  -0.2500000   0.0000000   0.2500000), wk =   0.0234375
        k(   40) = (  -0.2500000   0.0000000   0.3750000), wk =   0.0468750
        k(   41) = (  -0.3750000   0.0000000   0.3750000), wk =   0.0234375
        k(   42) = (   0.1250000  -0.1250000   0.1250000), wk =   0.0234375
        k(   43) = (   0.1250000  -0.1250000   0.2500000), wk =   0.0468750
        k(   44) = (  -0.2500000   0.1250000   0.1250000), wk =   0.0234375
        k(   45) = (   0.1250000  -0.1250000   0.3750000), wk =   0.0468750
        k(   46) = (  -0.3750000   0.1250000   0.1250000), wk =   0.0234375
        k(   47) = (   0.1250000  -0.1250000  -0.5000000), wk =   0.0234375
        k(   48) = (   0.2500000  -0.1250000   0.2500000), wk =   0.0234375
        k(   49) = (  -0.2500000   0.1250000   0.2500000), wk =   0.0468750
        k(   50) = (   0.2500000  -0.1250000   0.3750000), wk =   0.0468750
        k(   51) = (  -0.2500000   0.1250000   0.3750000), wk =   0.0468750
        k(   52) = (  -0.3750000   0.2500000   0.1250000), wk =   0.0468750
        k(   53) = (   0.2500000  -0.1250000  -0.5000000), wk =   0.0468750
        k(   54) = (   0.3750000  -0.1250000   0.3750000), wk =   0.0234375
        k(   55) = (  -0.3750000   0.1250000   0.3750000), wk =   0.0468750
        k(   56) = (   0.3750000  -0.1250000  -0.5000000), wk =   0.0468750
        k(   57) = (   0.2500000  -0.2500000   0.2500000), wk =   0.0234375
        k(   58) = (   0.2500000  -0.2500000   0.3750000), wk =   0.0468750
        k(   59) = (  -0.3750000   0.2500000   0.2500000), wk =   0.0234375
        k(   60) = (   0.2500000  -0.2500000  -0.5000000), wk =   0.0234375
        k(   61) = (   0.3750000  -0.2500000   0.3750000), wk =   0.0234375
        k(   62) = (  -0.3750000   0.2500000   0.3750000), wk =   0.0468750
        k(   63) = (   0.3750000  -0.2500000  -0.5000000), wk =   0.0468750
        k(   64) = (   0.3750000  -0.3750000   0.3750000), wk =   0.0234375
        k(   65) = (   0.3750000  -0.3750000  -0.5000000), wk =   0.0234375

                       cryst. coord.
        k(    1) = (   0.0000000   0.0000000   0.0000000), wk =   0.0039062
        k(    2) = (   0.0000000   0.0000000   0.1250000), wk =   0.0234375
        k(    3) = (   0.0000000   0.0000000   0.2500000), wk =   0.0234375
        k(    4) = (   0.0000000   0.0000000   0.3750000), wk =   0.0234375
        k(    5) = (   0.0000000   0.0000000  -0.5000000), wk =   0.0117188
        k(    6) = (   0.0000000   0.1250000   0.1250000), wk =   0.0234375
        k(    7) = (   0.0000000   0.1250000   0.2500000), wk =   0.0468750
        k(    8) = (   0.0000000   0.1250000   0.3750000), wk =   0.0468750
        k(    9) = (   0.0000000   0.1250000  -0.5000000), wk =   0.0468750
        k(   10) = (   0.0000000   0.2500000   0.2500000), wk =   0.0234375
        k(   11) = (   0.0000000   0.2500000   0.3750000), wk =   0.0468750
        k(   12) = (   0.0000000   0.2500000  -0.5000000), wk =   0.0468750
        k(   13) = (   0.0000000   0.3750000   0.3750000), wk =   0.0234375
        k(   14) = (   0.0000000   0.3750000  -0.5000000), wk =   0.0468750
        k(   15) = (   0.0000000  -0.5000000  -0.5000000), wk =   0.0117188
        k(   16) = (   0.1250000   0.1250000   0.1250000), wk =   0.0078125
        k(   17) = (   0.1250000   0.1250000   0.2500000), wk =   0.0234375
        k(   18) = (   0.1250000   0.1250000   0.3750000), wk =   0.0234375
        k(   19) = (   0.1250000   0.1250000  -0.5000000), wk =   0.0234375
        k(   20) = (   0.1250000   0.2500000   0.2500000), wk =   0.0234375
        k(   21) = (   0.1250000   0.2500000   0.3750000), wk =   0.0468750
        k(   22) = (   0.1250000   0.2500000  -0.5000000), wk =   0.0468750
        k(   23) = (   0.1250000   0.3750000   0.3750000), wk =   0.0234375
        k(   24) = (   0.1250000   0.3750000  -0.5000000), wk =   0.0468750
        k(   25) = (   0.1250000  -0.5000000  -0.5000000), wk =   0.0234375
        k(   26) = (   0.2500000   0.2500000   0.2500000), wk =   0.0078125
        k(   27) = (   0.2500000   0.2500000   0.3750000), wk =   0.0234375
        k(   28) = (   0.2500000   0.2500000  -0.5000000), wk =   0.0234375
        k(   29) = (   0.2500000   0.3750000   0.3750000), wk =   0.0234375
        k(   30) = (   0.2500000   0.3750000  -0.5000000), wk =   0.0468750
        k(   31) = (   0.2500000  -0.5000000  -0.5000000), wk =   0.0234375
        k(   32) = (   0.3750000   0.3750000   0.3750000), wk =   0.0078125
        k(   33) = (   0.3750000   0.3750000  -0.5000000), wk =   0.0234375
        k(   34) = (   0.3750000  -0.5000000  -0.5000000), wk =   0.0234375
        k(   35) = (  -0.5000000  -0.5000000  -0.5000000), wk =   0.0039062
        k(   36) = (  -0.1250000   0.0000000   0.1250000), wk =   0.0234375
        k(   37) = (  -0.1250000   0.0000000   0.2500000), wk =   0.0468750
        k(   38) = (  -0.1250000   0.0000000   0.3750000), wk =   0.0468750
        k(   39) = (  -0.2500000   0.0000000   0.2500000), wk =   0.0234375
        k(   40) = (  -0.2500000   0.0000000   0.3750000), wk =   0.0468750
        k(   41) = (  -0.3750000   0.0000000   0.3750000), wk =   0.0234375
        k(   42) = (   0.1250000  -0.1250000   0.1250000), wk =   0.0234375
        k(   43) = (   0.1250000  -0.1250000   0.2500000), wk =   0.0468750
        k(   44) = (  -0.2500000   0.1250000   0.1250000), wk =   0.0234375
        k(   45) = (   0.1250000  -0.1250000   0.3750000), wk =   0.0468750
        k(   46) = (  -0.3750000   0.1250000   0.1250000), wk =   0.0234375
        k(   47) = (   0.1250000  -0.1250000  -0.5000000), wk =   0.0234375
        k(   48) = (   0.2500000  -0.1250000   0.2500000), wk =   0.0234375
        k(   49) = (  -0.2500000   0.1250000   0.2500000), wk =   0.0468750
        k(   50) = (   0.2500000  -0.1250000   0.3750000), wk =   0.0468750
        k(   51) = (  -0.2500000   0.1250000   0.3750000), wk =   0.0468750
        k(   52) = (  -0.3750000   0.2500000   0.1250000), wk =   0.0468750
        k(   53) = (   0.2500000  -0.1250000  -0.5000000), wk =   0.0468750
        k(   54) = (   0.3750000  -0.1250000   0.3750000), wk =   0.0234375
        k(   55) = (  -0.3750000   0.1250000   0.3750000), wk =   0.0468750
        k(   56) = (   0.3750000  -0.1250000  -0.5000000), wk =   0.0468750
        k(   57) = (   0.2500000  -0.2500000   0.2500000), wk =   0.0234375
        k(   58) = (   0.2500000  -0.2500000   0.3750000), wk =   0.0468750
        k(   59) = (  -0.3750000   0.2500000   0.2500000), wk =   0.0234375
        k(   60) = (   0.2500000  -0.2500000  -0.5000000), wk =   0.0234375
        k(   61) = (   0.3750000  -0.2500000   0.3750000), wk =   0.0234375
        k(   62) = (  -0.3750000   0.2500000   0.3750000), wk =   0.0468750
        k(   63) = (   0.3750000  -0.2500000  -0.5000000), wk =   0.0468750
        k(   64) = (   0.3750000  -0.3750000   0.3750000), wk =   0.0234375
        k(   65) = (   0.3750000  -0.3750000  -0.5000000), wk =   0.0234375

     Dense  grid:    58365 G-vectors     FFT dimensions: (  50,  50,  50)

     Smooth grid:    25341 G-vectors     FFT dimensions: (  40,  40,  40)

     Dynamical RAM for                 wfc:       0.16 MB

     Dynamical RAM for     wfc (w. buffer):      10.61 MB

     Dynamical RAM for           str. fact:       0.15 MB

     Dynamical RAM for           local pot:       0.00 MB

     Dynamical RAM for          nlocal pot:       0.51 MB

     Dynamical RAM for                qrad:       0.55 MB

     Dynamical RAM for          rho,v,vnew:       0.96 MB

     Dynamical RAM for               rhoin:       0.32 MB

     Dynamical RAM for            rho*nmix:       2.38 MB

     Dynamical RAM for           G-vectors:       0.59 MB

     Dynamical RAM for          h,s,v(r/c):       0.29 MB

     Dynamical RAM for          <psi|beta>:       0.02 MB

     Dynamical RAM for                 psi:       0.64 MB

     Dynamical RAM for                hpsi:       0.64 MB

     Dynamical RAM for                spsi:       0.64 MB

     Dynamical RAM for      wfcinit/wfcrot:       0.54 MB

     Dynamical RAM for           addusdens:       7.57 MB

     Estimated static dynamical RAM per process >      17.23 MB

     Estimated max dynamical RAM per process >      24.80 MB

     Estimated total dynamical RAM >     148.80 MB

     Check: negative core charge=   -0.000003

     Initial potential from superposition of free atoms

     starting charge   31.99967, renormalised to   32.00000
     Starting wfcs are   32 randomized atomic wfcs

     total cpu time spent up to now is        2.0 secs

     Self-consistent Calculation

     iteration #  1     ecut=    80.00 Ry     beta= 0.70
     Davidson diagonalization with overlap
     ethr =  1.00E-02,  avg # of iterations =  3.3

     total cpu time spent up to now is        5.6 secs

     total energy              =     -98.96133713 Ry
     Harris-Foulkes estimate   =     -99.31432373 Ry
     estimated scf accuracy    <       0.70176147 Ry

     iteration #  2     ecut=    80.00 Ry     beta= 0.70
     Davidson diagonalization with overlap
     ethr =  2.19E-03,  avg # of iterations =  2.0

     total cpu time spent up to now is        8.2 secs

     total energy              =     -99.02240125 Ry
     Harris-Foulkes estimate   =     -99.03757425 Ry
     estimated scf accuracy    <       0.02794124 Ry

     iteration #  3     ecut=    80.00 Ry     beta= 0.70
     Davidson diagonalization with overlap
     ethr =  8.73E-05,  avg # of iterations =  4.4

     total cpu time spent up to now is       12.0 secs

     total energy              =     -99.02867013 Ry
     Harris-Foulkes estimate   =     -99.03340933 Ry
     estimated scf accuracy    <       0.00838135 Ry

     iteration #  4     ecut=    80.00 Ry     beta= 0.70
     Davidson diagonalization with overlap
     ethr =  2.62E-05,  avg # of iterations =  2.3

     total cpu time spent up to now is       15.2 secs

     total energy              =     -99.03076989 Ry
     Harris-Foulkes estimate   =     -99.03087266 Ry
     estimated scf accuracy    <       0.00028029 Ry

     iteration #  5     ecut=    80.00 Ry     beta= 0.70
     Davidson diagonalization with overlap
     ethr =  8.76E-07,  avg # of iterations =  2.8

     total cpu time spent up to now is       18.5 secs

     total energy              =     -99.03084248 Ry
     Harris-Foulkes estimate   =     -99.03085296 Ry
     estimated scf accuracy    <       0.00002563 Ry

     iteration #  6     ecut=    80.00 Ry     beta= 0.70
     Davidson diagonalization with overlap
     ethr =  8.01E-08,  avg # of iterations =  2.0

     total cpu time spent up to now is       21.2 secs

     total energy              =     -99.03084434 Ry
     Harris-Foulkes estimate   =     -99.03084569 Ry
     estimated scf accuracy    <       0.00000300 Ry

     iteration #  7     ecut=    80.00 Ry     beta= 0.70
     Davidson diagonalization with overlap
     ethr =  9.37E-09,  avg # of iterations =  2.0

     total cpu time spent up to now is       24.4 secs

     End of self-consistent calculation

          k = 0.0000 0.0000 0.0000 (  3119 PWs)   bands (ev):

    -7.5070   1.5567   1.9334   1.9334   2.6328   2.6328   2.9384   8.4371
     8.4371   8.8884   9.2494   9.4507   9.4507  15.8536  15.8536  17.9545
    19.9163  20.6277  20.6277  21.1530

     occupation numbers 
     1.0000   1.0000   1.0000   1.0000   1.0000   1.0000   1.0000   1.0000
     1.0000   1.0000   1.0000   1.0000   1.0000   1.0000   1.0000   0.9887
     0.0000   0.0000   0.0000   0.0000

          k = 0.0000 0.0000 0.1250 (  3150 PWs)   bands (ev):

    -7.3516   0.0377   2.0054   2.0334   2.7125   2.7603   4.6705   8.1411
     8.2196   8.8302   8.8740   9.1454   9.5994  15.3383  15.4133  17.2029
    20.2505  20.8426  21.2789  21.6225

     occupation numbers 
     1.0000   1.0000   1.0000   1.0000   1.0000   1.0000   1.0000   1.0000
     1.0000   1.0000   1.0000   1.0000   1.0000   1.0000   1.0000   1.0001
     0.0000   0.0000   0.0000   0.0000

          k = 0.0000 0.0000 0.2500 (  3142 PWs)   bands (ev):

    -6.8898  -1.8305   2.2816   2.3042   3.0731   3.1250   6.6888   7.4445
     7.5646   8.0915   8.1553   9.3114  10.0770  14.1964  14.2956  15.7959
    20.4543  21.5747  22.2606  22.9795

     occupation numbers 
     1.0000   1.0000   1.0000   1.0000   1.0000   1.0000   1.0000   1.0000
     1.0000   1.0000   1.0000   1.0000   1.0000   1.0000   1.0000   1.0000
     0.0000   0.0000   0.0000   0.0000

          k = 0.0000 0.0000 0.3750 (  3150 PWs)   bands (ev):

    -6.1488  -3.4458   2.6261   2.6354   3.5836   3.6396   6.3568   6.5325
     7.0787   7.3334   9.3955   9.8742  10.9000  12.9203  13.0210  14.2003
    20.5851  21.4192  24.0230  25.1779

     occupation numbers 
     1.0000   1.0000   1.0000   1.0000   1.0000   1.0000   1.0000   1.0000
     1.0000   1.0000   1.0000   1.0000   1.0000   1.0000   1.0000   1.0000
     0.0000   0.0000   0.0000   0.0000

          k = 0.0000 0.0000-0.5000 (  3178 PWs)   bands (ev):

    -5.4688  -4.4206   2.8001   2.8008   3.9015   3.9610   5.9239   6.0572
     6.7172   6.9814  10.2520  10.8635  11.6874  11.8907  12.4233  12.9598
    20.6969  21.2486  25.7836  26.3936

     occupation numbers 
     1.0000   1.0000   1.0000   1.0000   1.0000   1.0000   1.0000   1.0000
     1.0000   1.0000   1.0000   1.0000   1.0000   1.0000   1.0000   1.0000
     0.0000   0.0000   0.0000   0.0000

          k = 0.0000 0.1250 0.1250 (  3139 PWs)   bands (ev):

    -7.1951   0.1223   0.2524   2.3512   2.5887   4.6024   4.7344   7.7472
     8.3334   8.3768   9.0338   9.2064   9.3349  14.7305  15.6834  16.0048
    20.5296  21.1335  21.2902  22.5660

     occupation numbers 
     1.0000   1.0000   1.0000   1.0000   1.0000   1.0000   1.0000   1.0000
     1.0000   1.0000   1.0000   1.0000   1.0000   1.0000   1.0000   1.0000
     0.0000   0.0000   0.0000   0.0000

          k = 0.0000 0.1250 0.2500 (  3159 PWs)   bands (ev):

    -6.7330  -1.6893   0.5700   2.5509   2.9316   4.7422   6.3902   6.8418
     7.6847   8.4569   8.6228   9.2265   9.9393  13.5491  14.4621  15.1473
    20.9794  21.7681  22.5467  22.7758

     occupation numbers 
     1.0000   1.0000   1.0000   1.0000   1.0000   1.0000   1.0000   1.0000
     1.0000   1.0000   1.0000   1.0000   1.0000   1.0000   1.0000   1.0000
     0.0000   0.0000   0.0000   0.0000

          k = 0.0000 0.1250 0.3750 (  3167 PWs)   bands (ev):

    -5.9927  -3.3008   1.1244   2.6264   3.4681   4.6302   5.8679   6.4711
     7.8914   8.2749   8.7619   9.7035  11.1517  12.3206  13.0522  13.9481
    21.1526  22.2127  23.5283  24.6298

     occupation numbers 
     1.0000   1.0000   1.0000   1.0000   1.0000   1.0000   1.0000   1.0000
     1.0000   1.0000   1.0000   1.0000   1.0000   1.0000   1.0000   1.0000
     0.0000   0.0000   0.0000   0.0000

          k = 0.0000 0.1250-0.5000 (  3172 PWs)   bands (ev):

    -5.3190  -4.2676   1.4999   2.5610   3.8546   4.3553   5.7403   6.0472
     7.3941   8.3720   9.7087  10.3747  11.3496  11.5393  12.4800  13.3589
    21.3061  21.9403  25.1414  25.9033

     occupation numbers 
     1.0000   1.0000   1.0000   1.0000   1.0000   1.0000   1.0000   1.0000
     1.0000   1.0000   1.0000   1.0000   1.0000   1.0000   1.0000   1.0000
     0.0000   0.0000   0.0000   0.0000

          k = 0.0000 0.2500 0.2500 (  3171 PWs)   bands (ev):

    -6.2723  -1.3160  -1.2270   2.3199   3.3408   5.3721   6.2860   6.5567
     7.9626   8.0407   9.5621   9.6034  10.0169  12.3392  13.1456  15.1452
    21.6785  22.6713  22.6714  24.1210

     occupation numbers 
     1.0000   1.0000   1.0000   1.0000   1.0000   1.0000   1.0000   1.0000
     1.0000   1.0000   1.0000   1.0000   1.0000   1.0000   1.0000   1.0000
     0.0000   0.0000   0.0000   0.0000

          k = 0.0000 0.2500 0.3750 (  3178 PWs)   bands (ev):

    -5.5369  -2.8645  -0.6222   1.6371   3.9426   5.0984   5.9558   6.7594
     7.8658   8.4896   9.5589  10.0751  11.0836  11.2257  12.2088  14.4034
    22.5628  22.8701  23.9921  24.5816

     occupation numbers 
     1.0000   1.0000   1.0000   1.0000   1.0000   1.0000   1.0000   1.0000
     1.0000   1.0000   1.0000   1.0000   1.0000   1.0000   1.0000   1.0000
     0.0000   0.0000   0.0000   0.0000

          k = 0.0000 0.2500-0.5000 (  3176 PWs)   bands (ev):

    -4.8759  -3.8145  -0.0810   1.0421   4.4181   4.8040   6.0413   6.2142
     8.5545   8.8406   9.4854  10.0007  10.5312  10.8088  12.9033  13.8770
    22.7609  23.5727  24.1493  25.1120

     occupation numbers 
     1.0000   1.0000   1.0000   1.0000   1.0000   1.0000   1.0000   1.0000
     1.0000   1.0000   1.0000   1.0000   1.0000   1.0000   1.0000   1.0000
     0.0000   0.0000   0.0000   0.0000

          k = 0.0000 0.3750 0.3750 (  3163 PWs)   bands (ev):

    -4.8129  -2.2039  -2.1360   0.3889   4.5806   5.4404   6.5519   6.7601
     7.6012   7.6643   9.8561  10.0616  10.5505  12.0584  12.2409  14.3091
    22.8017  24.3005  24.4917  25.6253

     occupation numbers 
     1.0000   1.0000   1.0000   1.0000   1.0000   1.0000   1.0000   1.0000
     1.0000   1.0000   1.0000   1.0000   1.0000   1.0000   1.0000   1.0000
     0.0000   0.0000   0.0000   0.0000

          k = 0.0000 0.3750-0.5000 (  3160 PWs)   bands (ev):

    -4.1738  -3.0946  -1.5442  -0.4390   5.0962   5.4075   6.5174   6.7292
     7.6532   8.0429   9.1410   9.2434  10.7418  12.1915  13.2997  14.0960
    23.2748  24.2466  24.5767  25.5884

     occupation numbers 
     1.0000   1.0000   1.0000   1.0000   1.0000   1.0000   1.0000   1.0000
     1.0000   1.0000   1.0000   1.0000   1.0000   1.0000   1.0000   1.0000
     0.0000   0.0000   0.0000   0.0000

          k = 0.0000-0.5000-0.5000 (  3168 PWs)   bands (ev):

    -3.5639  -2.4418  -2.4357  -1.3392   5.6639   5.7750   6.5000   7.0326
     7.5034   7.5783   8.4950   8.5992  11.2400  13.0254  13.4644  14.0078
    23.1038  24.4254  24.4766  25.4204

     occupation numbers 
     1.0000   1.0000   1.0000   1.0000   1.0000   1.0000   1.0000   1.0000
     1.0000   1.0000   1.0000   1.0000   1.0000   1.0000   1.0000   1.0000
     0.0000   0.0000   0.0000   0.0000

          k = 0.1250 0.1250 0.1250 (  3143 PWs)   bands (ev):

    -7.0375   0.2365   0.3845   0.3845   4.5330   4.5330   4.6918   8.0648
     8.2457   8.2457   8.9288   8.9288   9.2913  14.5411  15.3358  15.3358
    20.7244  21.1551  21.1551  23.4541

     occupation numbers 
     1.0000   1.0000   1.0000   1.0000   1.0000   1.0000   1.0000   1.0000
     1.0000   1.0000   1.0000   1.0000   1.0000   1.0000   1.0000   1.0000
     0.0000   0.0000   0.0000   0.0000

          k = 0.1250 0.1250 0.2500 (  3147 PWs)   bands (ev):

    -6.5749  -1.5476   0.6723   0.7622   4.3410   4.4404   6.2638   7.3322
     7.4156   8.8587   8.9306   9.2966   9.5687  12.9622  14.3473  15.0350
    21.1428  21.7805  22.0900  23.2248

     occupation numbers 
     1.0000   1.0000   1.0000   1.0000   1.0000   1.0000   1.0000   1.0000
     1.0000   1.0000   1.0000   1.0000   1.0000   1.0000   1.0000   1.0000
     0.0000   0.0000   0.0000   0.0000

          k = 0.1250 0.1250 0.3750 (  3168 PWs)   bands (ev):

    -5.8354  -3.1556   1.2220   1.3016   3.8433   3.8917   6.7293   7.0781
     7.8337   8.5116   8.5660  10.0777  10.7919  11.7893  13.2529  13.9396
    21.3733  22.7233  23.4851  23.7845

     occupation numbers 
     1.0000   1.0000   1.0000   1.0000   1.0000   1.0000   1.0000   1.0000
     1.0000   1.0000   1.0000   1.0000   1.0000   1.0000   1.0000   1.0000
     0.0000   0.0000   0.0000   0.0000

          k = 0.1250 0.1250-0.5000 (  3164 PWs)   bands (ev):

    -5.1675  -4.1152   1.6067   1.6347   3.4759   3.5287   6.6009   6.8317
     8.2247   8.5315   9.0693  10.0688  10.4684  12.3193  12.6267  13.3564
    21.5484  22.4272  24.9188  25.1681

     occupation numbers 
     1.0000   1.0000   1.0000   1.0000   1.0000   1.0000   1.0000   1.0000
     1.0000   1.0000   1.0000   1.0000   1.0000   1.0000   1.0000   1.0000
     0.0000   0.0000   0.0000   0.0000

          k = 0.1250 0.2500 0.2500 (  3153 PWs)   bands (ev):

    -6.1138  -1.1733  -1.0880   1.0544   3.5669   5.4345   5.5459   7.0039
     8.6432   8.9533   9.3744   9.4145  10.0495  11.4332  13.7552  15.0312
    21.8300  22.1557  22.1882  24.2119

     occupation numbers 
     1.0000   1.0000   1.0000   1.0000   1.0000   1.0000   1.0000   1.0000
     1.0000   1.0000   1.0000   1.0000   1.0000   1.0000   1.0000   1.0000
     0.0000   0.0000   0.0000   0.0000

          k = 0.1250 0.2500 0.3750 (  3163 PWs)   bands (ev):

    -5.3791  -2.7199  -0.4844   1.3099   2.7756   4.4830   6.3698   7.2705
     8.2511   9.2414   9.5826   9.8316  10.3900  11.5622  12.7948  14.3895
    22.3733  22.8495  23.6845  24.0914

     occupation numbers 
     1.0000   1.0000   1.0000   1.0000   1.0000   1.0000   1.0000   1.0000
     1.0000   1.0000   1.0000   1.0000   1.0000   1.0000   1.0000   1.0000
     0.0000   0.0000   0.0000   0.0000

          k = 0.1250 0.2500-0.5000 (  3180 PWs)   bands (ev):

    -4.7237  -3.6636   0.0598   1.0249   2.8192   3.8556   6.8923   7.6057
     7.9572   8.6799   9.3205  10.0222  10.6405  12.0304  12.9426  13.8093
    22.5255  23.5823  24.1914  24.6634

     occupation numbers 
     1.0000   1.0000   1.0000   1.0000   1.0000   1.0000   1.0000   1.0000
     1.0000   1.0000   1.0000   1.0000   1.0000   1.0000   1.0000   1.0000
     0.0000   0.0000   0.0000   0.0000

          k = 0.1250 0.3750 0.3750 (  3167 PWs)   bands (ev):

    -4.6566  -2.0621  -1.9929   0.4775   2.8220   5.1711   5.3233   7.5398
     8.2232   8.9363   9.1067  10.5581  11.4517  12.0128  12.3527  14.3819
    22.9111  23.7507  23.8228  25.2506

     occupation numbers 
     1.0000   1.0000   1.0000   1.0000   1.0000   1.0000   1.0000   1.0000
     1.0000   1.0000   1.0000   1.0000   1.0000   1.0000   1.0000   1.0000
     0.0000   0.0000   0.0000   0.0000

          k = 0.1250 0.3750-0.5000 (  3180 PWs)   bands (ev):

    -4.0241  -2.9471  -1.4030  -0.3138   3.2794   4.5157   6.0272   7.0177
     7.7722   8.9434   9.3944  10.6152  11.1644  12.2514  13.3499  14.1153
    23.2600  23.9782  24.3439  25.2603

     occupation numbers 
     1.0000   1.0000   1.0000   1.0000   1.0000   1.0000   1.0000   1.0000
     1.0000   1.0000   1.0000   1.0000   1.0000   1.0000   1.0000   1.0000
     0.0000   0.0000   0.0000   0.0000

          k = 0.1250-0.5000-0.5000 (  3164 PWs)   bands (ev):

    -3.4247  -2.2968  -2.2920  -1.1923   3.8962   5.0205   5.2771   6.2172
     7.8707   8.9671   9.5951  10.4578  11.3091  13.0943  13.5298  14.0383
    23.1836  24.4015  24.4827  25.3682

     occupation numbers 
     1.0000   1.0000   1.0000   1.0000   1.0000   1.0000   1.0000   1.0000
     1.0000   1.0000   1.0000   1.0000   1.0000   1.0000   1.0000   1.0000
     0.0000   0.0000   0.0000   0.0000

          k = 0.2500 0.2500 0.2500 (  3161 PWs)   bands (ev):

    -5.6544  -0.8074  -0.6828  -0.6828   4.1351   4.1351   4.2431   8.5559
     9.1032   9.1032   9.9874   9.9874  10.1355  10.3972  14.4524  14.4524
    22.0863  22.2352  22.2352  24.7539

     occupation numbers 
     1.0000   1.0000   1.0000   1.0000   1.0000   1.0000   1.0000   1.0000
     1.0000   1.0000   1.0000   1.0000   1.0000   1.0000   1.0000   1.0000
     0.0000   0.0000   0.0000   0.0000

          k = 0.2500 0.2500 0.3750 (  3178 PWs)   bands (ev):

    -4.9254  -2.2886  -0.1552  -0.0831   2.8954   2.9089   4.9438   7.7458
     9.2813   9.4564  10.2147  10.2709  10.8499  11.6199  13.6916  14.1910
    22.5151  23.0483  23.1364  24.4158

     occupation numbers 
     1.0000   1.0000   1.0000   1.0000   1.0000   1.0000   1.0000   1.0000
     1.0000   1.0000   1.0000   1.0000   1.0000   1.0000   1.0000   1.0000
     0.0000   0.0000   0.0000   0.0000

          k = 0.2500 0.2500-0.5000 (  3180 PWs)   bands (ev):

    -4.2832  -3.2168   0.3173   0.3275   2.1930   2.2704   5.7518   6.7786
     9.1263   9.1451  10.5273  10.5742  11.1872  12.9923  13.1700  13.7088
    22.6907  23.8668  24.0957  24.2223

     occupation numbers 
     1.0000   1.0000   1.0000   1.0000   1.0000   1.0000   1.0000   1.0000
     1.0000   1.0000   1.0000   1.0000   1.0000   1.0000   1.0000   1.0000
     0.0000   0.0000   0.0000   0.0000

          k = 0.2500 0.3750 0.3750 (  3165 PWs)   bands (ev):

    -4.2108  -1.6429  -1.5740   0.2291   1.7420   3.5204   3.6259   6.3617
     9.7177  10.3727  10.5413  11.0086  12.0440  12.0940  13.3668  14.2946
    23.1058  23.3003  23.4286  24.9901

     occupation numbers 
     1.0000   1.0000   1.0000   1.0000   1.0000   1.0000   1.0000   1.0000
     1.0000   1.0000   1.0000   1.0000   1.0000   1.0000   1.0000   1.0000
     0.0000   0.0000   0.0000   0.0000

          k = 0.2500 0.3750-0.5000 (  3180 PWs)   bands (ev):

    -3.5949  -2.5117  -1.0027  -0.0415   1.7105   2.7558   4.3369   5.3560
     9.4984  10.4267  10.9909  11.2303  12.3130  12.8727  13.4902  14.0927
    23.2303  23.7945  24.1498  24.7439

     occupation numbers 
     1.0000   1.0000   1.0000   1.0000   1.0000   1.0000   1.0000   1.0000
     1.0000   1.0000   1.0000   1.0000   1.0000   1.0000   1.0000   1.0000
     0.0000   0.0000   0.0000   0.0000

          k = 0.2500-0.5000-0.5000 (  3160 PWs)   bands (ev):

    -3.0206  -1.8744  -1.8732  -0.7686   2.2021   3.2887   3.4928   4.4855
     9.5053  10.4464  11.6080  11.6090  12.3169  13.3049  13.7131  14.1126
    23.3656  24.1621  24.3997  25.2044

     occupation numbers 
     1.0000   1.0000   1.0000   1.0000   1.0000   1.0000   1.0000   1.0000
     1.0000   1.0000   1.0000   1.0000   1.0000   1.0000   1.0000   1.0000
     0.0000   0.0000   0.0000   0.0000

          k = 0.3750 0.3750 0.3750 (  3175 PWs)   bands (ev):

    -3.5183  -1.0139  -0.9459  -0.9459   2.1091   2.1091   2.1708   4.8654
    10.7092  10.7092  11.7908  12.3957  12.3957  12.4070  14.0699  14.0699
    23.3111  23.3111  23.5771  25.0962

     occupation numbers 
     1.0000   1.0000   1.0000   1.0000   1.0000   1.0000   1.0000   1.0000
     1.0000   1.0000   1.0000   1.0000   1.0000   1.0000   1.0000   1.0000
     0.0000   0.0000   0.0000   0.0000

          k = 0.3750 0.3750-0.5000 (  3162 PWs)   bands (ev):

    -2.9395  -1.8371  -0.4996  -0.3956   1.2848   1.3993   2.8520   3.8667
    10.7007  10.7199  11.9790  12.6998  12.8442  13.7039  13.8158  14.0562
    23.3146  23.6598  24.0699  24.7002

     occupation numbers 
     1.0000   1.0000   1.0000   1.0000   1.0000   1.0000   1.0000   1.0000
     1.0000   1.0000   1.0000   1.0000   1.0000   1.0000   1.0000   1.0000
     0.0000   0.0000   0.0000   0.0000

          k = 0.3750-0.5000-0.5000 (  3160 PWs)   bands (ev):

    -2.4242  -1.2520  -1.2363  -0.2139   0.9196   1.8330   2.0082   2.9828
    10.7001  11.0218  12.2393  13.2472  13.6583  13.6614  13.9782  14.1866
    23.4703  23.6692  24.1100  25.0419

     occupation numbers 
     1.0000   1.0000   1.0000   1.0000   1.0000   1.0000   1.0000   1.0000
     1.0000   1.0000   1.0000   1.0000   1.0000   1.0000   1.0000   1.0000
     0.0000   0.0000   0.0000   0.0000

          k =-0.5000-0.5000-0.5000 (  3184 PWs)   bands (ev):

    -2.0176  -0.7796  -0.7796  -0.3077   0.9751   1.0989   1.0989   2.2068
    11.1270  11.1270  12.5100  13.8899  13.8899  14.0919  14.2155  14.2155
    23.4360  23.4360  23.9397  24.9903

     occupation numbers 
     1.0000   1.0000   1.0000   1.0000   1.0000   1.0000   1.0000   1.0000
     1.0000   1.0000   1.0000   1.0000   1.0000   1.0000   1.0000   1.0000
     0.0000   0.0000   0.0000   0.0000

          k =-0.1250 0.0000 0.1250 (  3139 PWs)   bands (ev):

    -7.1977  -0.0761   0.5045   2.4617   2.4974   4.3659   5.0655   7.1648
     8.1142   8.7462   8.7936   9.3892   9.7292  14.4191  14.9551  17.3941
    20.6071  21.2592  21.4947  21.8483

     occupation numbers 
     1.0000   1.0000   1.0000   1.0000   1.0000   1.0000   1.0000   1.0000
     1.0000   1.0000   1.0000   1.0000   1.0000   1.0000   1.0000   1.0018
     0.0000   0.0000   0.0000   0.0000

          k =-0.1250 0.0000 0.2500 (  3159 PWs)   bands (ev):

    -6.7380  -1.6957   0.6183   2.6740   2.8696   4.8271   5.9184   7.0590
     7.5947   8.0908   9.0373   9.4433   9.9002  13.1258  13.8497  16.5140
    21.0926  21.8581  22.0816  23.2553

     occupation numbers 
     1.0000   1.0000   1.0000   1.0000   1.0000   1.0000   1.0000   1.0000
     1.0000   1.0000   1.0000   1.0000   1.0000   1.0000   1.0000   1.0000
     0.0000   0.0000   0.0000   0.0000

          k =-0.1250 0.0000 0.3750 (  3167 PWs)   bands (ev):

    -5.9994  -3.2945   1.1357   2.7722   3.4034   4.6410   5.5341   6.7250
     7.3124   8.7371   9.2099   9.9842  10.4983  11.8327  12.6853  15.0333
    21.2760  21.9092  23.7322  25.0840

     occupation numbers 
     1.0000   1.0000   1.0000   1.0000   1.0000   1.0000   1.0000   1.0000
     1.0000   1.0000   1.0000   1.0000   1.0000   1.0000   1.0000   1.0000
     0.0000   0.0000   0.0000   0.0000

          k =-0.2500 0.0000 0.2500 (  3171 PWs)   bands (ev):

    -6.2819  -1.4907  -0.9956   2.4791   3.2688   4.7800   6.6350   7.1008
     7.7588   8.1963   8.5695   9.7145  10.6046  11.8089  12.8005  16.4273
    21.7659  22.4993  22.9699  23.6031

     occupation numbers 
     1.0000   1.0000   1.0000   1.0000   1.0000   1.0000   1.0000   1.0000
     1.0000   1.0000   1.0000   1.0000   1.0000   1.0000   1.0000   1.0000
     0.0000   0.0000   0.0000   0.0000

          k =-0.2500 0.0000 0.3750 (  3178 PWs)   bands (ev):

    -5.5495  -2.8592  -0.5758   1.7013   3.8659   4.6911   6.2431   7.0600
     8.0859   8.5632   8.9758  10.4872  10.5726  10.9609  11.9438  15.4320
    22.5626  23.0330  23.4953  25.4430

     occupation numbers 
     1.0000   1.0000   1.0000   1.0000   1.0000   1.0000   1.0000   1.0000
     1.0000   1.0000   1.0000   1.0000   1.0000   1.0000   1.0000   1.0000
     0.0000   0.0000   0.0000   0.0000

          k =-0.3750 0.0000 0.3750 (  3163 PWs)   bands (ev):

    -4.8285  -2.3468  -1.9331   0.3789   4.5147   5.0836   6.7879   7.2744
     7.4270   8.1290   9.4314   9.4871  10.5475  11.6750  12.4187  15.1108
    22.8372  23.8221  25.1019  25.4214

     occupation numbers 
     1.0000   1.0000   1.0000   1.0000   1.0000   1.0000   1.0000   1.0000
     1.0000   1.0000   1.0000   1.0000   1.0000   1.0000   1.0000   1.0000
     0.0000   0.0000   0.0000   0.0000

          k = 0.1250-0.1250 0.1250 (  3143 PWs)   bands (ev):

    -7.0428  -0.0606   0.3809   0.8058   4.2004   4.7059   5.1818   7.2705
     7.3943   7.9216   9.1276   9.8363   9.8825  13.5126  15.1496  16.8328
    20.6204  21.4239  21.8734  22.1466

     occupation numbers 
     1.0000   1.0000   1.0000   1.0000   1.0000   1.0000   1.0000   1.0000
     1.0000   1.0000   1.0000   1.0000   1.0000   1.0000   1.0000   1.0000
     0.0000   0.0000   0.0000   0.0000

          k = 0.1250-0.1250 0.2500 (  3147 PWs)   bands (ev):

    -6.5827  -1.5562   0.4258   1.1247   4.3931   4.8728   6.1709   6.5533
     7.0790   8.0696   9.2604   9.7924  10.3681  12.1697  14.5029  15.7950
    21.2688  21.8756  22.5987  22.8277

     occupation numbers 
     1.0000   1.0000   1.0000   1.0000   1.0000   1.0000   1.0000   1.0000
     1.0000   1.0000   1.0000   1.0000   1.0000   1.0000   1.0000   1.0000
     0.0000   0.0000   0.0000   0.0000

          k =-0.2500 0.1250 0.1250 (  3147 PWs)   bands (ev):

    -6.5850  -1.5651   0.7516   0.8018   4.5272   4.6734   6.0891   6.4872
     7.2536   8.3441   9.3992   9.8574   9.9084  12.0907  14.1228  16.4976
    21.1002  22.2089  22.4122  22.6049

     occupation numbers 
     1.0000   1.0000   1.0000   1.0000   1.0000   1.0000   1.0000   1.0000
     1.0000   1.0000   1.0000   1.0000   1.0000   1.0000   1.0000   1.0000
     0.0000   0.0000   0.0000   0.0000

          k = 0.1250-0.1250 0.3750 (  3168 PWs)   bands (ev):

    -5.8452  -3.1503   0.8465   1.7819   3.8970   4.3940   5.7220   6.7640
     7.7982   8.3462   9.3730  10.0776  10.9282  11.2668  13.3218  14.5078
    21.7073  22.4613  23.4728  24.4467

     occupation numbers 
     1.0000   1.0000   1.0000   1.0000   1.0000   1.0000   1.0000   1.0000
     1.0000   1.0000   1.0000   1.0000   1.0000   1.0000   1.0000   1.0000
     0.0000   0.0000   0.0000   0.0000

          k =-0.3750 0.1250 0.1250 (  3168 PWs)   bands (ev):

    -5.8488  -3.1441   1.2816   1.2981   3.9404   4.0633   6.2148   6.4253
     8.3369   8.9266   9.0437  10.1690  10.1807  11.0107  13.0850  15.1781
    21.4743  22.3201  23.9680  24.1273

     occupation numbers 
     1.0000   1.0000   1.0000   1.0000   1.0000   1.0000   1.0000   1.0000
     1.0000   1.0000   1.0000   1.0000   1.0000   1.0000   1.0000   1.0000
     0.0000   0.0000   0.0000   0.0000

          k = 0.1250-0.1250-0.5000 (  3164 PWs)   bands (ev):

    -5.1718  -4.1147   1.0812   2.3730   3.2078   4.1042   5.6581   7.1035
     7.7597   8.5782   9.1642  10.0088  11.3044  12.2355  12.4521  13.3474
    21.9074  22.2959  24.8414  26.0745

     occupation numbers 
     1.0000   1.0000   1.0000   1.0000   1.0000   1.0000   1.0000   1.0000
     1.0000   1.0000   1.0000   1.0000   1.0000   1.0000   1.0000   1.0000
     0.0000   0.0000   0.0000   0.0000

          k = 0.2500-0.1250 0.2500 (  3153 PWs)   bands (ev):

    -6.1242  -1.2036  -1.0869   1.1127   4.1957   5.4483   5.6942   6.0127
     7.7370   8.2275   9.9916  10.4031  10.5614  10.8136  14.5864  14.7417
    21.5922  22.5858  22.9340  23.9951

     occupation numbers 
     1.0000   1.0000   1.0000   1.0000   1.0000   1.0000   1.0000   1.0000
     1.0000   1.0000   1.0000   1.0000   1.0000   1.0000   1.0000   1.0000
     0.0000   0.0000   0.0000   0.0000

          k =-0.2500 0.1250 0.2500 (  3153 PWs)   bands (ev):

    -6.1287  -1.3695  -0.8528   1.1331   3.6920   5.5412   5.9279   6.3628
     7.6437   8.4306   9.5842  10.2231  10.6472  10.8464  13.6102  16.1008
    21.6875  22.4969  22.8424  23.2660

     occupation numbers 
     1.0000   1.0000   1.0000   1.0000   1.0000   1.0000   1.0000   1.0000
     1.0000   1.0000   1.0000   1.0000   1.0000   1.0000   1.0000   1.0000
     0.0000   0.0000   0.0000   0.0000

          k = 0.2500-0.1250 0.3750 (  3163 PWs)   bands (ev):

    -5.3917  -2.7166  -0.5230   1.2540   3.4421   4.4975   6.1447   6.3939
     7.9413   9.0458   9.5887  10.2779  10.5922  11.7422  13.3849  14.1331
    22.5072  23.1476  24.0088  24.4282

     occupation numbers 
     1.0000   1.0000   1.0000   1.0000   1.0000   1.0000   1.0000   1.0000
     1.0000   1.0000   1.0000   1.0000   1.0000   1.0000   1.0000   1.0000
     0.0000   0.0000   0.0000   0.0000

          k =-0.2500 0.1250 0.3750 (  3163 PWs)   bands (ev):

    -5.3975  -2.7168  -0.4893   1.4269   2.8100   4.9591   6.0906   6.5607
     8.2007   8.7733   9.3501  10.5040  10.8059  11.2850  12.6532  15.1773
    22.7570  23.1161  23.3063  24.4920

     occupation numbers 
     1.0000   1.0000   1.0000   1.0000   1.0000   1.0000   1.0000   1.0000
     1.0000   1.0000   1.0000   1.0000   1.0000   1.0000   1.0000   1.0000
     0.0000   0.0000   0.0000   0.0000

          k =-0.3750 0.2500 0.1250 (  3163 PWs)   bands (ev):

    -5.3985  -2.7131  -0.4302   1.3299   2.8222   4.5097   6.4560   7.0397
     8.1240   9.1499   9.3290   9.7317  10.7157  11.3175  12.7269  15.3115
    22.3027  23.0985  23.5984  24.3666

     occupation numbers 
     1.0000   1.0000   1.0000   1.0000   1.0000   1.0000   1.0000   1.0000
     1.0000   1.0000   1.0000   1.0000   1.0000   1.0000   1.0000   1.0000
     0.0000   0.0000   0.0000   0.0000

          k = 0.2500-0.1250-0.5000 (  3180 PWs)   bands (ev):

    -4.7318  -3.6624  -0.0568   1.1205   3.0816   4.1116   6.3319   6.8843
     8.0943   8.5482   9.2963  10.6240  11.1231  11.9166  12.8544  13.7858
    23.0486  23.5560  24.0546  25.4021

     occupation numbers 
     1.0000   1.0000   1.0000   1.0000   1.0000   1.0000   1.0000   1.0000
     1.0000   1.0000   1.0000   1.0000   1.0000   1.0000   1.0000   1.0000
     0.0000   0.0000   0.0000   0.0000

          k = 0.3750-0.1250 0.3750 (  3167 PWs)   bands (ev):

    -4.6709  -2.0656  -1.9917   0.4162   3.4333   5.0635   5.2431   6.6346
     7.9963   8.7024   9.4666  10.8278  11.5545  12.2690  12.7499  14.1050
    22.8357  24.4899  24.5044  25.3575

     occupation numbers 
     1.0000   1.0000   1.0000   1.0000   1.0000   1.0000   1.0000   1.0000
     1.0000   1.0000   1.0000   1.0000   1.0000   1.0000   1.0000   1.0000
     0.0000   0.0000   0.0000   0.0000

          k =-0.3750 0.1250 0.3750 (  3167 PWs)   bands (ev):

    -4.6792  -2.2155  -1.7826   0.4606   2.9061   5.1713   5.6377   6.8598
     7.8753   9.0415   9.7510  10.0062  11.4090  11.8793  12.5668  15.0247
    22.8988  23.7365  24.5256  24.9173

     occupation numbers 
     1.0000   1.0000   1.0000   1.0000   1.0000   1.0000   1.0000   1.0000
     1.0000   1.0000   1.0000   1.0000   1.0000   1.0000   1.0000   1.0000
     0.0000   0.0000   0.0000   0.0000

          k = 0.3750-0.1250-0.5000 (  3180 PWs)   bands (ev):

    -4.0333  -2.9453  -1.4209  -0.3084   3.5713   4.6672   5.6728   6.7377
     7.5367   8.6751   9.9424  10.8557  11.0787  12.3663  13.3316  14.0681
    23.3676  24.2881  24.7386  25.1834

     occupation numbers 
     1.0000   1.0000   1.0000   1.0000   1.0000   1.0000   1.0000   1.0000
     1.0000   1.0000   1.0000   1.0000   1.0000   1.0000   1.0000   1.0000
     0.0000   0.0000   0.0000   0.0000

          k = 0.2500-0.2500 0.2500 (  3161 PWs)   bands (ev):

    -5.6741  -1.1150  -0.6819  -0.2575   4.0680   4.2644   4.6978   7.3045
     8.1344   8.8396   9.5811  10.3665  11.1430  11.1742  14.0389  15.3944
    21.7939  22.6620  23.1119  23.6973

     occupation numbers 
     1.0000   1.0000   1.0000   1.0000   1.0000   1.0000   1.0000   1.0000
     1.0000   1.0000   1.0000   1.0000   1.0000   1.0000   1.0000   1.0000
     0.0000   0.0000   0.0000   0.0000

          k = 0.2500-0.2500 0.3750 (  3178 PWs)   bands (ev):

    -4.9485  -2.2925  -0.4732   0.3519   2.7473   3.4283   4.8586   7.2540
     8.0872   9.1165  10.0835  11.0738  11.5375  11.9439  13.5499  14.5787
    22.6772  23.3072  23.8475  24.1885

     occupation numbers 
     1.0000   1.0000   1.0000   1.0000   1.0000   1.0000   1.0000   1.0000
     1.0000   1.0000   1.0000   1.0000   1.0000   1.0000   1.0000   1.0000
     0.0000   0.0000   0.0000   0.0000

          k =-0.3750 0.2500 0.2500 (  3178 PWs)   bands (ev):

    -4.9503  -2.2979  -0.0848  -0.0209   2.7962   2.9464   5.3514   7.3367
     8.6301   8.6501  10.4783  10.7279  11.2294  11.7365  13.3646  15.0653
    22.3830  23.4383  23.5245  24.0281

     occupation numbers 
     1.0000   1.0000   1.0000   1.0000   1.0000   1.0000   1.0000   1.0000
     1.0000   1.0000   1.0000   1.0000   1.0000   1.0000   1.0000   1.0000
     0.0000   0.0000   0.0000   0.0000

          k = 0.2500-0.2500-0.5000 (  3180 PWs)   bands (ev):

    -4.2973  -3.2143  -0.1998   1.0380   1.8195   2.8793   5.3714   6.6904
     8.0158   9.6498   9.9138  11.4565  12.0515  12.7621  12.9819  13.7421
    23.4634  23.8000  23.8928  25.2282

     occupation numbers 
     1.0000   1.0000   1.0000   1.0000   1.0000   1.0000   1.0000   1.0000
     1.0000   1.0000   1.0000   1.0000   1.0000   1.0000   1.0000   1.0000
     0.0000   0.0000   0.0000   0.0000

          k = 0.3750-0.2500 0.3750 (  3165 PWs)   bands (ev):

    -4.2358  -1.6878  -1.5722   0.2475   2.2111   3.4309   3.5523   6.1022
     8.6592   9.7765  11.1157  11.3752  12.3937  12.6366  13.8403  13.8462
    22.9873  24.0062  24.2403  24.7738

     occupation numbers 
     1.0000   1.0000   1.0000   1.0000   1.0000   1.0000   1.0000   1.0000
     1.0000   1.0000   1.0000   1.0000   1.0000   1.0000   1.0000   1.0000
     0.0000   0.0000   0.0000   0.0000

          k =-0.3750 0.2500 0.3750 (  3165 PWs)   bands (ev):

    -4.2378  -1.8448  -1.3437   0.3223   1.7019   3.4653   3.9268   6.0717
     8.8328  10.0649  10.7893  11.4613  12.0489  12.5100  13.1946  14.7917
    22.9796  23.6788  23.9857  24.5262

     occupation numbers 
     1.0000   1.0000   1.0000   1.0000   1.0000   1.0000   1.0000   1.0000
     1.0000   1.0000   1.0000   1.0000   1.0000   1.0000   1.0000   1.0000
     0.0000   0.0000   0.0000   0.0000

          k = 0.3750-0.2500-0.5000 (  3180 PWs)   bands (ev):

    -3.6096  -2.5086  -1.0939   0.0403   1.8915   2.9566   4.0103   5.3142
     8.9240  10.2149  11.0781  11.9569  12.4723  12.8432  13.4635  14.0523
    23.5316  24.0500  24.5662  24.8438

     occupation numbers 
     1.0000   1.0000   1.0000   1.0000   1.0000   1.0000   1.0000   1.0000
     1.0000   1.0000   1.0000   1.0000   1.0000   1.0000   1.0000   1.0000
     0.0000   0.0000   0.0000   0.0000

          k = 0.3750-0.3750 0.3750 (  3175 PWs)   bands (ev):

    -3.5425  -1.4119  -0.9446  -0.3935   1.7862   2.1207   2.5789   4.6336
     9.9859  10.4025  11.8574  12.4058  12.9311  13.0117  13.6939  14.4803
    23.1897  23.8126  24.0897  24.5025

     occupation numbers 
     1.0000   1.0000   1.0000   1.0000   1.0000   1.0000   1.0000   1.0000
     1.0000   1.0000   1.0000   1.0000   1.0000   1.0000   1.0000   1.0000
     0.0000   0.0000   0.0000   0.0000

          k = 0.3750-0.3750-0.5000 (  3162 PWs)   bands (ev):

    -2.9488  -1.8375  -0.9085   0.2371   0.8860   1.8940   2.5931   3.8108
    10.1573  10.8029  11.9831  13.0177  13.2730  13.4643  13.7933  14.1240
    23.5630  23.8475  24.3290  24.6289

     occupation numbers 
     1.0000   1.0000   1.0000   1.0000   1.0000   1.0000   1.0000   1.0000
     1.0000   1.0000   1.0000   1.0000   1.0000   1.0000   1.0000   1.0000
     0.0000   0.0000   0.0000   0.0000

     the Fermi energy is    18.1972 ev

!    total energy              =     -99.03084504 Ry
     Harris-Foulkes estimate   =     -99.03084515 Ry
     estimated scf accuracy    <       0.00000019 Ry

     The total energy is the sum of the following terms:

     one-electron contribution =      39.31594668 Ry
     hartree contribution      =       7.48485899 Ry
     xc contribution           =     -38.64027873 Ry
     ewald contribution        =    -107.19138037 Ry
     smearing contrib. (-TS)   =       0.00000839 Ry

     convergence has been achieved in   7 iterations

     Writing output data file c-3.386.save/

     init_run     :      1.67s CPU      1.70s WALL (       1 calls)
     electrons    :     21.70s CPU     22.43s WALL (       1 calls)

     Called by init_run:
     wfcinit      :      1.48s CPU      1.50s WALL (       1 calls)
     wfcinit:atom :      0.01s CPU      0.01s WALL (      65 calls)
     wfcinit:wfcr :      1.40s CPU      1.42s WALL (      65 calls)
     potinit      :      0.03s CPU      0.03s WALL (       1 calls)
     hinit0       :      0.07s CPU      0.07s WALL (       1 calls)

     Called by electrons:
     c_bands      :     19.06s CPU     19.67s WALL (       7 calls)
     sum_band     :      2.42s CPU      2.54s WALL (       7 calls)
     v_of_rho     :      0.10s CPU      0.11s WALL (       8 calls)
     v_h          :      0.01s CPU      0.01s WALL (       8 calls)
     v_xc         :      0.09s CPU      0.10s WALL (       8 calls)
     newd         :      0.11s CPU      0.11s WALL (       8 calls)
     mix_rho      :      0.01s CPU      0.01s WALL (       7 calls)

     Called by c_bands:
     init_us_2    :      0.21s CPU      0.21s WALL (     975 calls)
     cegterg      :     18.41s CPU     19.00s WALL (     455 calls)

     Called by sum_band:
     sum_band:bec :      0.01s CPU      0.01s WALL (     455 calls)
     addusdens    :      0.07s CPU      0.07s WALL (       7 calls)

     Called by *egterg:
     h_psi        :     12.56s CPU     13.13s WALL (    1744 calls)
     s_psi        :      1.30s CPU      1.32s WALL (    1744 calls)
     g_psi        :      0.07s CPU      0.07s WALL (    1224 calls)
     cdiaghg      :      1.32s CPU      1.34s WALL (    1679 calls)
     cegterg:over :      2.10s CPU      2.12s WALL (    1224 calls)
     cegterg:upda :      0.77s CPU      0.77s WALL (    1224 calls)
     cegterg:last :      0.37s CPU      0.37s WALL (     455 calls)

     Called by h_psi:
     h_psi:pot    :     12.52s CPU     13.09s WALL (    1744 calls)
     h_psi:calbec :      1.93s CPU      2.02s WALL (    1744 calls)
     vloc_psi     :      9.27s CPU      9.71s WALL (    1744 calls)
     add_vuspsi   :      1.31s CPU      1.35s WALL (    1744 calls)

     General routines
     calbec       :      2.55s CPU      2.68s WALL (    2199 calls)
     fft          :      0.06s CPU      0.07s WALL (     102 calls)
     ffts         :      0.01s CPU      0.01s WALL (      15 calls)
     fftw         :      9.86s CPU     10.33s WALL (   62810 calls)
     interpolate  :      0.01s CPU      0.01s WALL (       8 calls)

     Parallel routines
     fft_scatt_xy :      0.77s CPU      0.81s WALL (   62927 calls)
     fft_scatt_yz :      4.80s CPU      5.04s WALL (   62927 calls)

     PWSCF        :     23.79s CPU     24.61s WALL


   This run was terminated on:  19: 4:46  26May2022            

=------------------------------------------------------------------------------=
   JOB DONE.
=------------------------------------------------------------------------------=
