
     Program PWSCF v.6.4.1 starts on 26May2022 at 19:12:14 

     This program is part of the open-source Quantum ESPRESSO suite
     for quantum simulation of materials; please cite
         "P. Giannozzi et al., J. Phys.:Condens. Matter 21 395502 (2009);
         "P. Giannozzi et al., J. Phys.:Condens. Matter 29 465901 (2017);
          URL http://www.quantum-espresso.org", 
     in publications or presentations arising from this work. More details at
     http://www.quantum-espresso.org/quote

     Parallel version (MPI), running on     6 processors

     MPI processes distributed on     1 nodes
     R & G space division:  proc/nbgrp/npool/nimage =       6
     Reading input from c-3.766.in

     Current dimensions of program PWSCF are:
     Max number of different atomic species (ntypx) = 10
     Max number of k-points (npk) =  40000
     Max angular momentum in pseudopotentials (lmaxx) =  3

     Subspace diagonalization in iterative solution of the eigenvalue problem:
     a serial algorithm will be used

     Message from routine setup:
     DEPRECATED: symmetry with ibrav=0, use correct ibrav instead

     Parallelization info
     --------------------
     sticks:   dense  smooth     PW     G-vecs:    dense   smooth      PW
     Min         373     217     62                13451     5814     916
     Max         374     219     63                13456     5815     917
     Sum        2241    1305    373                80725    34889    5497



     bravais-lattice index     =            0
     lattice parameter (alat)  =       7.1167  a.u.
     unit-cell volume          =     360.4438 (a.u.)^3
     number of atoms/cell      =            8
     number of atomic types    =            1
     number of electrons       =        32.00
     number of Kohn-Sham states=           20
     kinetic-energy cutoff     =      80.0000  Ry
     charge density cutoff     =     560.0000  Ry
     convergence threshold     =      1.0E-06
     mixing beta               =       0.7000
     number of iterations used =            8  plain     mixing
     Exchange-correlation      = PBE ( 1  4  3  4 0 0)

     celldm(1)=   7.116709  celldm(2)=   0.000000  celldm(3)=   0.000000
     celldm(4)=   0.000000  celldm(5)=   0.000000  celldm(6)=   0.000000

     crystal axes: (cart. coord. in units of alat)
               a(1) = (   1.000000   0.000000   0.000000 )  
               a(2) = (   0.000000   1.000000   0.000000 )  
               a(3) = (   0.000000   0.000000   1.000000 )  

     reciprocal axes: (cart. coord. in units 2 pi/alat)
               b(1) = (  1.000000  0.000000  0.000000 )  
               b(2) = (  0.000000  1.000000  0.000000 )  
               b(3) = (  0.000000  0.000000  1.000000 )  


     PseudoPot. # 1 for C  read from file:
     /home/cristian/Escritorio/Proyecto_Grafeno/pseudopotenciales/C.pbe-n-rrkjus_psl.1.0.0.UPF
     MD5 check sum: 1fdd950c42eb37d8afe3dd2f8d12311e
     Pseudo is Ultrasoft + core correction, Zval =  4.0
     Generated using "atomic" code by A. Dal Corso v.6.3MaX
     Using radial grid of 1073 points,  4 beta functions with: 
                l(1) =   0
                l(2) =   0
                l(3) =   1
                l(4) =   1
     Q(r) pseudized with 0 coefficients 


     atomic species   valence    mass     pseudopotential
        C              4.00    12.01100     C ( 1.00)

      6 Sym. Ops. (no inversion) found


                                    s                        frac. trans.

      isym =  1     identity                                     

 cryst.   s( 1) = (     1          0          0      )
                  (     0          1          0      )
                  (     0          0          1      )

 cart.    s( 1) = (  1.0000000  0.0000000  0.0000000 )
                  (  0.0000000  1.0000000  0.0000000 )
                  (  0.0000000  0.0000000  1.0000000 )


      isym =  2     120 deg rotation - cart. axis [-1,-1,-1]     

 cryst.   s( 2) = (     0          0          1      )
                  (     1          0          0      )
                  (     0          1          0      )

 cart.    s( 2) = (  0.0000000  1.0000000  0.0000000 )
                  (  0.0000000  0.0000000  1.0000000 )
                  (  1.0000000  0.0000000  0.0000000 )


      isym =  3     120 deg rotation - cart. axis [1,1,1]        

 cryst.   s( 3) = (     0          1          0      )
                  (     0          0          1      )
                  (     1          0          0      )

 cart.    s( 3) = (  0.0000000  0.0000000  1.0000000 )
                  (  1.0000000  0.0000000  0.0000000 )
                  (  0.0000000  1.0000000  0.0000000 )


      isym =  4     inv. 180 deg rotation - cart. axis [1,-1,0]  

 cryst.   s( 4) = (     0          1          0      )
                  (     1          0          0      )
                  (     0          0          1      )

 cart.    s( 4) = (  0.0000000  1.0000000  0.0000000 )
                  (  1.0000000  0.0000000  0.0000000 )
                  (  0.0000000  0.0000000  1.0000000 )


      isym =  5     inv. 180 deg rotation - cart. axis [-1,0,1]  

 cryst.   s( 5) = (     0          0          1      )
                  (     0          1          0      )
                  (     1          0          0      )

 cart.    s( 5) = (  0.0000000  0.0000000  1.0000000 )
                  (  0.0000000  1.0000000  0.0000000 )
                  (  1.0000000  0.0000000  0.0000000 )


      isym =  6     inv. 180 deg rotation - cart. axis [0,1,-1]  

 cryst.   s( 6) = (     1          0          0      )
                  (     0          0          1      )
                  (     0          1          0      )

 cart.    s( 6) = (  1.0000000  0.0000000  0.0000000 )
                  (  0.0000000  0.0000000  1.0000000 )
                  (  0.0000000  1.0000000  0.0000000 )


   Cartesian axes

     site n.     atom                  positions (alat units)
         1           C   tau(   1) = (   0.0000000   0.0000000   0.0000000  )
         2           C   tau(   2) = (   0.4734466   0.4734466   0.0000000  )
         3           C   tau(   3) = (   0.0000000   0.4734466   0.4734466  )
         4           C   tau(   4) = (   0.4734466   0.0000000   0.4734466  )
         5           C   tau(   5) = (   0.2367233   0.2367233   0.2367233  )
         6           C   tau(   6) = (   0.7101699   0.7101699   0.2367233  )
         7           C   tau(   7) = (   0.2367233   0.7101699   0.7101699  )
         8           C   tau(   8) = (   0.7101699   0.2367233   0.7101699  )

   Crystallographic axes

     site n.     atom                  positions (cryst. coord.)
         1           C   tau(   1) = (  0.0000000  0.0000000  0.0000000  )
         2           C   tau(   2) = (  0.4734466  0.4734466  0.0000000  )
         3           C   tau(   3) = (  0.0000000  0.4734466  0.4734466  )
         4           C   tau(   4) = (  0.4734466  0.0000000  0.4734466  )
         5           C   tau(   5) = (  0.2367233  0.2367233  0.2367233  )
         6           C   tau(   6) = (  0.7101699  0.7101699  0.2367233  )
         7           C   tau(   7) = (  0.2367233  0.7101699  0.7101699  )
         8           C   tau(   8) = (  0.7101699  0.2367233  0.7101699  )

     number of k points=    65  Marzari-Vanderbilt smearing, width (Ry)=  0.0200
                       cart. coord. in units 2pi/alat
        k(    1) = (   0.0000000   0.0000000   0.0000000), wk =   0.0039062
        k(    2) = (   0.0000000   0.0000000   0.1250000), wk =   0.0234375
        k(    3) = (   0.0000000   0.0000000   0.2500000), wk =   0.0234375
        k(    4) = (   0.0000000   0.0000000   0.3750000), wk =   0.0234375
        k(    5) = (   0.0000000   0.0000000  -0.5000000), wk =   0.0117188
        k(    6) = (   0.0000000   0.1250000   0.1250000), wk =   0.0234375
        k(    7) = (   0.0000000   0.1250000   0.2500000), wk =   0.0468750
        k(    8) = (   0.0000000   0.1250000   0.3750000), wk =   0.0468750
        k(    9) = (   0.0000000   0.1250000  -0.5000000), wk =   0.0468750
        k(   10) = (   0.0000000   0.2500000   0.2500000), wk =   0.0234375
        k(   11) = (   0.0000000   0.2500000   0.3750000), wk =   0.0468750
        k(   12) = (   0.0000000   0.2500000  -0.5000000), wk =   0.0468750
        k(   13) = (   0.0000000   0.3750000   0.3750000), wk =   0.0234375
        k(   14) = (   0.0000000   0.3750000  -0.5000000), wk =   0.0468750
        k(   15) = (   0.0000000  -0.5000000  -0.5000000), wk =   0.0117188
        k(   16) = (   0.1250000   0.1250000   0.1250000), wk =   0.0078125
        k(   17) = (   0.1250000   0.1250000   0.2500000), wk =   0.0234375
        k(   18) = (   0.1250000   0.1250000   0.3750000), wk =   0.0234375
        k(   19) = (   0.1250000   0.1250000  -0.5000000), wk =   0.0234375
        k(   20) = (   0.1250000   0.2500000   0.2500000), wk =   0.0234375
        k(   21) = (   0.1250000   0.2500000   0.3750000), wk =   0.0468750
        k(   22) = (   0.1250000   0.2500000  -0.5000000), wk =   0.0468750
        k(   23) = (   0.1250000   0.3750000   0.3750000), wk =   0.0234375
        k(   24) = (   0.1250000   0.3750000  -0.5000000), wk =   0.0468750
        k(   25) = (   0.1250000  -0.5000000  -0.5000000), wk =   0.0234375
        k(   26) = (   0.2500000   0.2500000   0.2500000), wk =   0.0078125
        k(   27) = (   0.2500000   0.2500000   0.3750000), wk =   0.0234375
        k(   28) = (   0.2500000   0.2500000  -0.5000000), wk =   0.0234375
        k(   29) = (   0.2500000   0.3750000   0.3750000), wk =   0.0234375
        k(   30) = (   0.2500000   0.3750000  -0.5000000), wk =   0.0468750
        k(   31) = (   0.2500000  -0.5000000  -0.5000000), wk =   0.0234375
        k(   32) = (   0.3750000   0.3750000   0.3750000), wk =   0.0078125
        k(   33) = (   0.3750000   0.3750000  -0.5000000), wk =   0.0234375
        k(   34) = (   0.3750000  -0.5000000  -0.5000000), wk =   0.0234375
        k(   35) = (  -0.5000000  -0.5000000  -0.5000000), wk =   0.0039062
        k(   36) = (  -0.1250000   0.0000000   0.1250000), wk =   0.0234375
        k(   37) = (  -0.1250000   0.0000000   0.2500000), wk =   0.0468750
        k(   38) = (  -0.1250000   0.0000000   0.3750000), wk =   0.0468750
        k(   39) = (  -0.2500000   0.0000000   0.2500000), wk =   0.0234375
        k(   40) = (  -0.2500000   0.0000000   0.3750000), wk =   0.0468750
        k(   41) = (  -0.3750000   0.0000000   0.3750000), wk =   0.0234375
        k(   42) = (   0.1250000  -0.1250000   0.1250000), wk =   0.0234375
        k(   43) = (   0.1250000  -0.1250000   0.2500000), wk =   0.0468750
        k(   44) = (  -0.2500000   0.1250000   0.1250000), wk =   0.0234375
        k(   45) = (   0.1250000  -0.1250000   0.3750000), wk =   0.0468750
        k(   46) = (  -0.3750000   0.1250000   0.1250000), wk =   0.0234375
        k(   47) = (   0.1250000  -0.1250000  -0.5000000), wk =   0.0234375
        k(   48) = (   0.2500000  -0.1250000   0.2500000), wk =   0.0234375
        k(   49) = (  -0.2500000   0.1250000   0.2500000), wk =   0.0468750
        k(   50) = (   0.2500000  -0.1250000   0.3750000), wk =   0.0468750
        k(   51) = (  -0.2500000   0.1250000   0.3750000), wk =   0.0468750
        k(   52) = (  -0.3750000   0.2500000   0.1250000), wk =   0.0468750
        k(   53) = (   0.2500000  -0.1250000  -0.5000000), wk =   0.0468750
        k(   54) = (   0.3750000  -0.1250000   0.3750000), wk =   0.0234375
        k(   55) = (  -0.3750000   0.1250000   0.3750000), wk =   0.0468750
        k(   56) = (   0.3750000  -0.1250000  -0.5000000), wk =   0.0468750
        k(   57) = (   0.2500000  -0.2500000   0.2500000), wk =   0.0234375
        k(   58) = (   0.2500000  -0.2500000   0.3750000), wk =   0.0468750
        k(   59) = (  -0.3750000   0.2500000   0.2500000), wk =   0.0234375
        k(   60) = (   0.2500000  -0.2500000  -0.5000000), wk =   0.0234375
        k(   61) = (   0.3750000  -0.2500000   0.3750000), wk =   0.0234375
        k(   62) = (  -0.3750000   0.2500000   0.3750000), wk =   0.0468750
        k(   63) = (   0.3750000  -0.2500000  -0.5000000), wk =   0.0468750
        k(   64) = (   0.3750000  -0.3750000   0.3750000), wk =   0.0234375
        k(   65) = (   0.3750000  -0.3750000  -0.5000000), wk =   0.0234375

                       cryst. coord.
        k(    1) = (   0.0000000   0.0000000   0.0000000), wk =   0.0039062
        k(    2) = (   0.0000000   0.0000000   0.1250000), wk =   0.0234375
        k(    3) = (   0.0000000   0.0000000   0.2500000), wk =   0.0234375
        k(    4) = (   0.0000000   0.0000000   0.3750000), wk =   0.0234375
        k(    5) = (   0.0000000   0.0000000  -0.5000000), wk =   0.0117188
        k(    6) = (   0.0000000   0.1250000   0.1250000), wk =   0.0234375
        k(    7) = (   0.0000000   0.1250000   0.2500000), wk =   0.0468750
        k(    8) = (   0.0000000   0.1250000   0.3750000), wk =   0.0468750
        k(    9) = (   0.0000000   0.1250000  -0.5000000), wk =   0.0468750
        k(   10) = (   0.0000000   0.2500000   0.2500000), wk =   0.0234375
        k(   11) = (   0.0000000   0.2500000   0.3750000), wk =   0.0468750
        k(   12) = (   0.0000000   0.2500000  -0.5000000), wk =   0.0468750
        k(   13) = (   0.0000000   0.3750000   0.3750000), wk =   0.0234375
        k(   14) = (   0.0000000   0.3750000  -0.5000000), wk =   0.0468750
        k(   15) = (   0.0000000  -0.5000000  -0.5000000), wk =   0.0117188
        k(   16) = (   0.1250000   0.1250000   0.1250000), wk =   0.0078125
        k(   17) = (   0.1250000   0.1250000   0.2500000), wk =   0.0234375
        k(   18) = (   0.1250000   0.1250000   0.3750000), wk =   0.0234375
        k(   19) = (   0.1250000   0.1250000  -0.5000000), wk =   0.0234375
        k(   20) = (   0.1250000   0.2500000   0.2500000), wk =   0.0234375
        k(   21) = (   0.1250000   0.2500000   0.3750000), wk =   0.0468750
        k(   22) = (   0.1250000   0.2500000  -0.5000000), wk =   0.0468750
        k(   23) = (   0.1250000   0.3750000   0.3750000), wk =   0.0234375
        k(   24) = (   0.1250000   0.3750000  -0.5000000), wk =   0.0468750
        k(   25) = (   0.1250000  -0.5000000  -0.5000000), wk =   0.0234375
        k(   26) = (   0.2500000   0.2500000   0.2500000), wk =   0.0078125
        k(   27) = (   0.2500000   0.2500000   0.3750000), wk =   0.0234375
        k(   28) = (   0.2500000   0.2500000  -0.5000000), wk =   0.0234375
        k(   29) = (   0.2500000   0.3750000   0.3750000), wk =   0.0234375
        k(   30) = (   0.2500000   0.3750000  -0.5000000), wk =   0.0468750
        k(   31) = (   0.2500000  -0.5000000  -0.5000000), wk =   0.0234375
        k(   32) = (   0.3750000   0.3750000   0.3750000), wk =   0.0078125
        k(   33) = (   0.3750000   0.3750000  -0.5000000), wk =   0.0234375
        k(   34) = (   0.3750000  -0.5000000  -0.5000000), wk =   0.0234375
        k(   35) = (  -0.5000000  -0.5000000  -0.5000000), wk =   0.0039062
        k(   36) = (  -0.1250000   0.0000000   0.1250000), wk =   0.0234375
        k(   37) = (  -0.1250000   0.0000000   0.2500000), wk =   0.0468750
        k(   38) = (  -0.1250000   0.0000000   0.3750000), wk =   0.0468750
        k(   39) = (  -0.2500000   0.0000000   0.2500000), wk =   0.0234375
        k(   40) = (  -0.2500000   0.0000000   0.3750000), wk =   0.0468750
        k(   41) = (  -0.3750000   0.0000000   0.3750000), wk =   0.0234375
        k(   42) = (   0.1250000  -0.1250000   0.1250000), wk =   0.0234375
        k(   43) = (   0.1250000  -0.1250000   0.2500000), wk =   0.0468750
        k(   44) = (  -0.2500000   0.1250000   0.1250000), wk =   0.0234375
        k(   45) = (   0.1250000  -0.1250000   0.3750000), wk =   0.0468750
        k(   46) = (  -0.3750000   0.1250000   0.1250000), wk =   0.0234375
        k(   47) = (   0.1250000  -0.1250000  -0.5000000), wk =   0.0234375
        k(   48) = (   0.2500000  -0.1250000   0.2500000), wk =   0.0234375
        k(   49) = (  -0.2500000   0.1250000   0.2500000), wk =   0.0468750
        k(   50) = (   0.2500000  -0.1250000   0.3750000), wk =   0.0468750
        k(   51) = (  -0.2500000   0.1250000   0.3750000), wk =   0.0468750
        k(   52) = (  -0.3750000   0.2500000   0.1250000), wk =   0.0468750
        k(   53) = (   0.2500000  -0.1250000  -0.5000000), wk =   0.0468750
        k(   54) = (   0.3750000  -0.1250000   0.3750000), wk =   0.0234375
        k(   55) = (  -0.3750000   0.1250000   0.3750000), wk =   0.0468750
        k(   56) = (   0.3750000  -0.1250000  -0.5000000), wk =   0.0468750
        k(   57) = (   0.2500000  -0.2500000   0.2500000), wk =   0.0234375
        k(   58) = (   0.2500000  -0.2500000   0.3750000), wk =   0.0468750
        k(   59) = (  -0.3750000   0.2500000   0.2500000), wk =   0.0234375
        k(   60) = (   0.2500000  -0.2500000  -0.5000000), wk =   0.0234375
        k(   61) = (   0.3750000  -0.2500000   0.3750000), wk =   0.0234375
        k(   62) = (  -0.3750000   0.2500000   0.3750000), wk =   0.0468750
        k(   63) = (   0.3750000  -0.2500000  -0.5000000), wk =   0.0468750
        k(   64) = (   0.3750000  -0.3750000   0.3750000), wk =   0.0234375
        k(   65) = (   0.3750000  -0.3750000  -0.5000000), wk =   0.0234375

     Dense  grid:    80725 G-vectors     FFT dimensions: (  54,  54,  54)

     Smooth grid:    34889 G-vectors     FFT dimensions: (  45,  45,  45)

     Dynamical RAM for                 wfc:       0.22 MB

     Dynamical RAM for     wfc (w. buffer):      14.60 MB

     Dynamical RAM for           str. fact:       0.21 MB

     Dynamical RAM for           local pot:       0.00 MB

     Dynamical RAM for          nlocal pot:       0.71 MB

     Dynamical RAM for                qrad:       0.61 MB

     Dynamical RAM for          rho,v,vnew:       1.22 MB

     Dynamical RAM for               rhoin:       0.41 MB

     Dynamical RAM for            rho*nmix:       3.28 MB

     Dynamical RAM for           G-vectors:       0.81 MB

     Dynamical RAM for          h,s,v(r/c):       0.29 MB

     Dynamical RAM for          <psi|beta>:       0.02 MB

     Dynamical RAM for                 psi:       0.89 MB

     Dynamical RAM for                hpsi:       0.89 MB

     Dynamical RAM for                spsi:       0.89 MB

     Dynamical RAM for      wfcinit/wfcrot:       0.73 MB

     Dynamical RAM for           addusdens:      10.47 MB

     Estimated static dynamical RAM per process >      23.26 MB

     Estimated max dynamical RAM per process >      33.73 MB

     Estimated total dynamical RAM >     202.39 MB

     Check: negative core charge=   -0.000003

     Initial potential from superposition of free atoms

     starting charge   31.99967, renormalised to   32.00000
     Starting wfcs are   32 randomized atomic wfcs

     total cpu time spent up to now is        2.6 secs

     Self-consistent Calculation

     iteration #  1     ecut=    80.00 Ry     beta= 0.70
     Davidson diagonalization with overlap
     ethr =  1.00E-02,  avg # of iterations =  2.1

     total cpu time spent up to now is        7.3 secs

     total energy              =     -99.09118943 Ry
     Harris-Foulkes estimate   =     -99.22485525 Ry
     estimated scf accuracy    <       0.33207071 Ry

     iteration #  2     ecut=    80.00 Ry     beta= 0.70
     Davidson diagonalization with overlap
     ethr =  1.04E-03,  avg # of iterations =  2.0

     total cpu time spent up to now is       10.8 secs

     total energy              =     -99.11789561 Ry
     Harris-Foulkes estimate   =     -99.12041957 Ry
     estimated scf accuracy    <       0.01153895 Ry

     iteration #  3     ecut=    80.00 Ry     beta= 0.70
     Davidson diagonalization with overlap
     ethr =  3.61E-05,  avg # of iterations =  6.1

     total cpu time spent up to now is       16.3 secs

     total energy              =     -99.11956673 Ry
     Harris-Foulkes estimate   =     -99.12039288 Ry
     estimated scf accuracy    <       0.00170023 Ry

     iteration #  4     ecut=    80.00 Ry     beta= 0.70
     Davidson diagonalization with overlap
     ethr =  5.31E-06,  avg # of iterations =  3.5

     total cpu time spent up to now is       21.1 secs

     total energy              =     -99.11997129 Ry
     Harris-Foulkes estimate   =     -99.12015342 Ry
     estimated scf accuracy    <       0.00038447 Ry

     iteration #  5     ecut=    80.00 Ry     beta= 0.70
     Davidson diagonalization with overlap
     ethr =  1.20E-06,  avg # of iterations =  2.2

     total cpu time spent up to now is       25.3 secs

     total energy              =     -99.12006878 Ry
     Harris-Foulkes estimate   =     -99.12008670 Ry
     estimated scf accuracy    <       0.00004765 Ry

     iteration #  6     ecut=    80.00 Ry     beta= 0.70
     Davidson diagonalization with overlap
     ethr =  1.49E-07,  avg # of iterations =  2.1

     total cpu time spent up to now is       29.0 secs

     total energy              =     -99.12007430 Ry
     Harris-Foulkes estimate   =     -99.12007677 Ry
     estimated scf accuracy    <       0.00000611 Ry

     iteration #  7     ecut=    80.00 Ry     beta= 0.70
     Davidson diagonalization with overlap
     ethr =  1.91E-08,  avg # of iterations =  2.1

     total cpu time spent up to now is       33.1 secs

     End of self-consistent calculation

          k = 0.0000 0.0000 0.0000 (  4385 PWs)   bands (ev):

    -9.0430  -1.9160  -1.6792  -1.6792  -0.7787  -0.7787  -0.6168   4.6451
     4.6451   5.0850   5.4761   5.5935   5.5935   9.2977  11.3989  11.3989
    13.2377  13.9829  13.9829  14.8458

     occupation numbers 
     1.0000   1.0000   1.0000   1.0000   1.0000   1.0000   1.0000   1.0000
     1.0000   1.0000   1.0000   1.0000   1.0000   1.0000   0.6338   0.6338
     0.0000   0.0000   0.0000   0.0000

          k = 0.0000 0.0000 0.1250 (  4373 PWs)   bands (ev):

    -8.9200  -3.0422  -1.6205  -1.6174  -0.7280  -0.7015   0.6382   4.4889
     4.5025   4.8891   5.1875   5.5411   5.6264   8.9841  10.8738  11.0002
    13.5538  14.1642  14.4499  14.9837

     occupation numbers 
     1.0000   1.0000   1.0000   1.0000   1.0000   1.0000   1.0000   1.0000
     1.0000   1.0000   1.0000   1.0000   1.0000   1.0000   1.0225   1.0613
     0.0000   0.0000   0.0000   0.0000

          k = 0.0000 0.0000 0.2500 (  4360 PWs)   bands (ev):

    -8.5567  -4.4835  -1.4678  -1.4660  -0.5095  -0.4944   2.3372   4.0485
     4.0588   4.3441   4.5186   5.7707   5.8711   8.1934   9.8330  10.0048
    13.8795  14.7528  15.3514  15.7326

     occupation numbers 
     1.0000   1.0000   1.0000   1.0000   1.0000   1.0000   1.0000   1.0000
     1.0000   1.0000   1.0000   1.0000   1.0000   1.0000   1.0000   1.0000
     0.0000   0.0000   0.0000   0.0000

          k = 0.0000 0.0000 0.3750 (  4328 PWs)   bands (ev):

    -7.9861  -5.7309  -1.2960  -1.2958  -0.2465  -0.2412   3.3074   3.5825
     3.6090   3.8807   4.4380   6.3059   6.3196   7.1978   8.7528   8.8374
    14.0499  14.6846  16.6460  17.3637

     occupation numbers 
     1.0000   1.0000   1.0000   1.0000   1.0000   1.0000   1.0000   1.0000
     1.0000   1.0000   1.0000   1.0000   1.0000   1.0000   1.0000   1.0000
     0.0000   0.0000   0.0000   0.0000

          k = 0.0000 0.0000-0.5000 (  4356 PWs)   bands (ev):

    -7.5109  -6.4349  -1.2186  -1.2173  -0.1262  -0.1077   3.1630   3.3848
     3.4236   3.6160   5.6504   5.9496   6.6027   7.1632   7.7953   8.3451
    14.1762  14.5270  17.7541  18.3731

     occupation numbers 
     1.0000   1.0000   1.0000   1.0000   1.0000   1.0000   1.0000   1.0000
     1.0000   1.0000   1.0000   1.0000   1.0000   1.0000   1.0000   1.0000
     0.0000   0.0000   0.0000   0.0000

          k = 0.0000 0.1250 0.1250 (  4359 PWs)   bands (ev):

    -8.7970  -3.0044  -2.8899  -1.4086  -0.7930   0.7000   0.7307   3.8801
     4.5719   4.7302   5.2825   5.3427   5.7106   8.4139  10.2883  11.2305
    13.8246  14.4643  14.8746  15.1800

     occupation numbers 
     1.0000   1.0000   1.0000   1.0000   1.0000   1.0000   1.0000   1.0000
     1.0000   1.0000   1.0000   1.0000   1.0000   1.0000   1.0000   1.0058
     0.0000   0.0000   0.0000   0.0000

          k = 0.0000 0.1250 0.2500 (  4351 PWs)   bands (ev):

    -8.4343  -4.3847  -2.7134  -1.2350  -0.6688   0.8030   2.3289   3.2185
     4.1604   4.5573   5.0618   5.4802   5.8397   7.4767   9.2892  10.6658
    14.3137  14.9969  15.4645  16.0176

     occupation numbers 
     1.0000   1.0000   1.0000   1.0000   1.0000   1.0000   1.0000   1.0000
     1.0000   1.0000   1.0000   1.0000   1.0000   1.0000   1.0000   1.0014
     0.0000   0.0000   0.0000   0.0000

          k = 0.0000 0.1250 0.3750 (  4340 PWs)   bands (ev):

    -7.8655  -5.6219  -2.3927  -1.2051  -0.3969   0.7556   2.6347   3.2714
     4.1793   4.5225   4.8748   5.7313   6.2004   6.5702   8.3311   9.5800
    14.5752  15.0784  16.5780  17.5370

     occupation numbers 
     1.0000   1.0000   1.0000   1.0000   1.0000   1.0000   1.0000   1.0000
     1.0000   1.0000   1.0000   1.0000   1.0000   1.0000   1.0000   1.0000
     0.0000   0.0000   0.0000   0.0000

          k = 0.0000 0.1250-0.5000 (  4358 PWs)   bands (ev):

    -7.3946  -6.3180  -2.1412  -1.3933  -0.0230   0.4809   2.6762   3.0531
     4.1986   4.5401   5.0614   5.8436   6.4644   6.8723   7.8414   8.5166
    14.6707  15.0190  17.4793  18.3916

     occupation numbers 
     1.0000   1.0000   1.0000   1.0000   1.0000   1.0000   1.0000   1.0000
     1.0000   1.0000   1.0000   1.0000   1.0000   1.0000   1.0000   1.0000
     0.0000   0.0000   0.0000   0.0000

          k = 0.0000 0.2500 0.2500 (  4356 PWs)   bands (ev):

    -8.0749  -4.1314  -4.0549  -1.3722  -0.4931   1.8827   2.2901   2.8674
     4.3893   4.4082   5.1601   5.3565   6.2576   6.4953   8.3876  10.7034
    14.9831  15.7136  16.0460  16.2357

     occupation numbers 
     1.0000   1.0000   1.0000   1.0000   1.0000   1.0000   1.0000   1.0000
     1.0000   1.0000   1.0000   1.0000   1.0000   1.0000   1.0000   1.0026
     0.0000   0.0000   0.0000   0.0000

          k = 0.0000 0.2500 0.3750 (  4350 PWs)   bands (ev):

    -7.5129  -5.2981  -3.6576  -1.8727  -0.0387   1.6215   2.4902   3.2261
     4.1483   4.6742   5.1646   5.6133   5.9266   6.5816   7.6042  10.0146
    15.6298  16.0250  16.5503  17.4191

     occupation numbers 
     1.0000   1.0000   1.0000   1.0000   1.0000   1.0000   1.0000   1.0000
     1.0000   1.0000   1.0000   1.0000   1.0000   1.0000   1.0000   1.0000
     0.0000   0.0000   0.0000   0.0000

          k = 0.0000 0.2500-0.5000 (  4364 PWs)   bands (ev):

    -7.0532  -5.9749  -3.2856  -2.3507   0.5425   1.1291   2.5479   3.0735
     4.0817   4.8866   5.3148   5.6564   6.1113   6.5114   7.9389   8.9545
    15.8362  16.0994  16.9631  18.0192

     occupation numbers 
     1.0000   1.0000   1.0000   1.0000   1.0000   1.0000   1.0000   1.0000
     1.0000   1.0000   1.0000   1.0000   1.0000   1.0000   1.0000   1.0000
     0.0000   0.0000   0.0000   0.0000

          k = 0.0000 0.3750 0.3750 (  4360 PWs)   bands (ev):

    -6.9660  -4.8193  -4.7757  -2.7492   0.5225   2.0315   2.7872   3.1250
     3.7696   4.1439   4.7740   5.7023   6.3850   7.2625   7.2690   9.8948
    16.0637  16.9471  17.3032  17.3048

     occupation numbers 
     1.0000   1.0000   1.0000   1.0000   1.0000   1.0000   1.0000   1.0000
     1.0000   1.0000   1.0000   1.0000   1.0000   1.0000   1.0000   1.0000
     0.0000   0.0000   0.0000   0.0000

          k = 0.0000 0.3750-0.5000 (  4348 PWs)   bands (ev):

    -6.5289  -5.4458  -4.3547  -3.3549   1.1829   1.7933   2.6162   3.1257
     3.4735   4.2011   4.8963   5.2969   6.6661   7.2987   8.0926   9.2689
    16.2196  16.8205  17.3602  17.5765

     occupation numbers 
     1.0000   1.0000   1.0000   1.0000   1.0000   1.0000   1.0000   1.0000
     1.0000   1.0000   1.0000   1.0000   1.0000   1.0000   1.0000   1.0000
     0.0000   0.0000   0.0000   0.0000

          k = 0.0000-0.5000-0.5000 (  4388 PWs)   bands (ev):

    -6.1227  -5.0185  -4.9603  -3.9454   1.7120   2.1512   2.4294   2.7997
     3.5971   4.0220   4.5351   4.8197   7.1051   7.8847   8.0073   9.3656
    16.1615  16.7118  17.1791  17.9094

     occupation numbers 
     1.0000   1.0000   1.0000   1.0000   1.0000   1.0000   1.0000   1.0000
     1.0000   1.0000   1.0000   1.0000   1.0000   1.0000   1.0000   1.0000
     0.0000   0.0000   0.0000   0.0000

          k = 0.1250 0.1250 0.1250 (  4352 PWs)   bands (ev):

    -8.6738  -2.9187  -2.8179  -2.8179   0.7730   0.7730   0.8268   3.9274
     3.9274   3.9885   5.5882   5.5882   5.8305   7.6547  10.7199  10.7199
    14.2060  14.8301  14.8301  15.8703

     occupation numbers 
     1.0000   1.0000   1.0000   1.0000   1.0000   1.0000   1.0000   1.0000
     1.0000   1.0000   1.0000   1.0000   1.0000   1.0000   1.0033   1.0033
     0.0000   0.0000   0.0000   0.0000

          k = 0.1250 0.1250 0.2500 (  4360 PWs)   bands (ev):

    -8.3118  -4.2833  -2.6518  -2.6066   0.7973   0.8619   2.3002   3.2054
     3.3766   4.2895   5.5609   5.5645   6.0942   6.6173   9.7917  10.4204
    14.7245  15.2319  15.7524  15.9748

     occupation numbers 
     1.0000   1.0000   1.0000   1.0000   1.0000   1.0000   1.0000   1.0000
     1.0000   1.0000   1.0000   1.0000   1.0000   1.0000   1.0000   1.0000
     0.0000   0.0000   0.0000   0.0000

          k = 0.1250 0.1250 0.3750 (  4346 PWs)   bands (ev):

    -7.7448  -5.5113  -2.3630  -2.3389   0.6297   0.6977   2.5354   2.8821
     4.1738   5.0146   5.2623   5.2725   5.6906   6.5171   8.9080   9.4439
    14.9704  15.5679  16.7582  17.2327

     occupation numbers 
     1.0000   1.0000   1.0000   1.0000   1.0000   1.0000   1.0000   1.0000
     1.0000   1.0000   1.0000   1.0000   1.0000   1.0000   1.0000   1.0000
     0.0000   0.0000   0.0000   0.0000

          k = 0.1250 0.1250-0.5000 (  4340 PWs)   bands (ev):

    -7.2787  -6.1987  -2.1901  -2.1820   0.4173   0.4411   2.6618   2.9691
     4.1801   4.7613   5.0170   5.6655   6.5633   6.7947   8.1499   8.5105
    15.0202  15.5372  17.7688  17.9961

     occupation numbers 
     1.0000   1.0000   1.0000   1.0000   1.0000   1.0000   1.0000   1.0000
     1.0000   1.0000   1.0000   1.0000   1.0000   1.0000   1.0000   1.0000
     0.0000   0.0000   0.0000   0.0000

          k = 0.1250 0.2500 0.2500 (  4333 PWs)   bands (ev):

    -7.9530  -4.0236  -3.9703  -2.5012   0.5780   1.8703   2.0366   2.9670
     3.8057   3.9247   5.5360   5.8159   5.9425   6.4201   9.2406  10.3538
    15.3340  15.7536  15.9213  16.6502

     occupation numbers 
     1.0000   1.0000   1.0000   1.0000   1.0000   1.0000   1.0000   1.0000
     1.0000   1.0000   1.0000   1.0000   1.0000   1.0000   1.0000   1.0000
     0.0000   0.0000   0.0000   0.0000

          k = 0.1250 0.2500 0.3750 (  4349 PWs)   bands (ev):

    -7.3933  -5.1886  -3.5771  -2.4827   0.2342   1.2876   2.4986   3.1983
     3.8104   4.4511   5.1421   5.7577   6.1578   6.8028   8.4832   9.7826
    15.8546  16.2268  16.8070  17.2577

     occupation numbers 
     1.0000   1.0000   1.0000   1.0000   1.0000   1.0000   1.0000   1.0000
     1.0000   1.0000   1.0000   1.0000   1.0000   1.0000   1.0000   1.0000
     0.0000   0.0000   0.0000   0.0000

          k = 0.1250 0.2500-0.5000 (  4348 PWs)   bands (ev):

    -6.9399  -5.8546  -3.2378  -2.6347   0.2323   0.7531   2.7687   3.2699
     3.4995   4.5026   5.6213   5.9494   6.4339   7.0742   8.1455   8.9040
    15.8753  16.3829  17.3460  17.9310

     occupation numbers 
     1.0000   1.0000   1.0000   1.0000   1.0000   1.0000   1.0000   1.0000
     1.0000   1.0000   1.0000   1.0000   1.0000   1.0000   1.0000   1.0000
     0.0000   0.0000   0.0000   0.0000

          k = 0.1250 0.3750 0.3750 (  4349 PWs)   bands (ev):

    -6.8500  -4.7026  -4.6848  -2.9469   0.1711   1.7441   1.9312   3.1533
     3.5722   4.7483   4.8260   6.2367   6.5888   7.3859   7.9839   9.7629
    16.3194  16.9174  17.2149  17.6625

     occupation numbers 
     1.0000   1.0000   1.0000   1.0000   1.0000   1.0000   1.0000   1.0000
     1.0000   1.0000   1.0000   1.0000   1.0000   1.0000   1.0000   1.0000
     0.0000   0.0000   0.0000   0.0000

          k = 0.1250 0.3750-0.5000 (  4356 PWs)   bands (ev):

    -6.4218  -5.3282  -4.2661  -3.3890   0.4294   1.2222   1.9853   2.8516
     3.9025   4.4426   5.4260   6.2285   6.8519   7.4946   8.2145   9.2604
    16.3129  16.8319  17.3656  17.6790

     occupation numbers 
     1.0000   1.0000   1.0000   1.0000   1.0000   1.0000   1.0000   1.0000
     1.0000   1.0000   1.0000   1.0000   1.0000   1.0000   1.0000   1.0000
     0.0000   0.0000   0.0000   0.0000

          k = 0.1250-0.5000-0.5000 (  4376 PWs)   bands (ev):

    -6.0246  -4.9247  -4.8620  -3.8551   0.5961   1.3591   1.7629   2.3480
     4.2300   4.8623   5.1110   5.9711   7.1307   7.9861   8.0572   9.4050
    16.2061  16.7168  17.1871  17.8034

     occupation numbers 
     1.0000   1.0000   1.0000   1.0000   1.0000   1.0000   1.0000   1.0000
     1.0000   1.0000   1.0000   1.0000   1.0000   1.0000   1.0000   1.0000
     0.0000   0.0000   0.0000   0.0000

          k = 0.2500 0.2500 0.2500 (  4347 PWs)   bands (ev):

    -7.5979  -3.7787  -3.7302  -3.7302   1.1463   1.1463   1.1637   3.7995
     4.0079   4.0079   4.5168   6.3530   6.3530   6.8285   9.7509   9.7509
    15.6799  15.9753  15.9753  17.4110

     occupation numbers 
     1.0000   1.0000   1.0000   1.0000   1.0000   1.0000   1.0000   1.0000
     1.0000   1.0000   1.0000   1.0000   1.0000   1.0000   1.0000   1.0000
     0.0000   0.0000   0.0000   0.0000

          k = 0.2500 0.2500 0.3750 (  4361 PWs)   bands (ev):

    -7.0473  -4.8799  -3.4236  -3.4232   0.2850   0.3002   1.6695   3.1467
     4.2716   4.3795   5.5613   6.5020   6.5065   7.2079   9.1714   9.4897
    16.1231  16.4661  16.8106  17.2717

     occupation numbers 
     1.0000   1.0000   1.0000   1.0000   1.0000   1.0000   1.0000   1.0000
     1.0000   1.0000   1.0000   1.0000   1.0000   1.0000   1.0000   1.0000
     0.0000   0.0000   0.0000   0.0000

          k = 0.2500 0.2500-0.5000 (  4360 PWs)   bands (ev):

    -6.6105  -5.5169  -3.2580  -3.1982  -0.1506  -0.0850   1.7785   2.7768
     4.4952   4.6422   6.2783   6.4154   7.0078   7.4319   8.5919   8.9490
    16.0780  16.6363  17.3602  17.8914

     occupation numbers 
     1.0000   1.0000   1.0000   1.0000   1.0000   1.0000   1.0000   1.0000
     1.0000   1.0000   1.0000   1.0000   1.0000   1.0000   1.0000   1.0000
     0.0000   0.0000   0.0000   0.0000

          k = 0.2500 0.3750 0.3750 (  4379 PWs)   bands (ev):

    -6.5186  -4.4309  -4.4114  -3.3612  -0.3885   0.6045   0.6866   2.1037
     4.7904   5.6997   5.7083   6.7587   6.9479   7.6983   8.9255   9.5943
    16.5890  16.7359  16.9222  17.4767

     occupation numbers 
     1.0000   1.0000   1.0000   1.0000   1.0000   1.0000   1.0000   1.0000
     1.0000   1.0000   1.0000   1.0000   1.0000   1.0000   1.0000   1.0000
     0.0000   0.0000   0.0000   0.0000

          k = 0.2500 0.3750-0.5000 (  4372 PWs)   bands (ev):

    -6.1151  -5.0137  -4.0475  -3.4496  -0.5211   0.0670   0.7364   1.7483
     5.1910   5.6237   6.4961   6.8776   7.1460   7.9236   8.6944   9.3142
    16.3715  16.7658  17.2132  17.3946

     occupation numbers 
     1.0000   1.0000   1.0000   1.0000   1.0000   1.0000   1.0000   1.0000
     1.0000   1.0000   1.0000   1.0000   1.0000   1.0000   1.0000   1.0000
     0.0000   0.0000   0.0000   0.0000

          k = 0.2500-0.5000-0.5000 (  4380 PWs)   bands (ev):

    -5.7490  -4.6657  -4.5936  -3.6093  -0.6681   0.1509   0.4741   1.2170
     5.5829   6.1295   6.4628   7.0348   7.1955   8.2462   8.4525   9.5097
    16.3068  16.6872  17.1405  17.3948

     occupation numbers 
     1.0000   1.0000   1.0000   1.0000   1.0000   1.0000   1.0000   1.0000
     1.0000   1.0000   1.0000   1.0000   1.0000   1.0000   1.0000   1.0000
     0.0000   0.0000   0.0000   0.0000

          k = 0.3750 0.3750 0.3750 (  4377 PWs)   bands (ev):

    -6.0259  -4.1059  -4.1059  -3.9543  -0.4813  -0.2825  -0.2825   1.0217
     6.1945   6.1945   6.2985   7.1806   7.1806   8.1744   9.4766   9.4766
    16.7327  16.7734  16.7734  17.1989

     occupation numbers 
     1.0000   1.0000   1.0000   1.0000   1.0000   1.0000   1.0000   1.0000
     1.0000   1.0000   1.0000   1.0000   1.0000   1.0000   1.0000   1.0000
     0.0000   0.0000   0.0000   0.0000

          k = 0.3750 0.3750-0.5000 (  4370 PWs)   bands (ev):

    -5.6740  -4.5844  -3.9329  -3.6072  -1.0235  -0.6843  -0.2638   0.6656
     6.4276   6.4918   7.0885   7.1800   7.3514   8.4186   9.2979   9.4650
    16.3732  16.7102  16.8233  17.1112

     occupation numbers 
     1.0000   1.0000   1.0000   1.0000   1.0000   1.0000   1.0000   1.0000
     1.0000   1.0000   1.0000   1.0000   1.0000   1.0000   1.0000   1.0000
     0.0000   0.0000   0.0000   0.0000

          k = 0.3750-0.5000-0.5000 (  4328 PWs)   bands (ev):

    -5.3787  -4.3350  -4.2796  -3.2864  -1.6519  -0.6993  -0.5095   0.1623
     6.7662   7.1152   7.2172   7.3136   7.4330   8.6680   9.3034   9.6449
    16.3745  16.5368  16.7215  16.9853

     occupation numbers 
     1.0000   1.0000   1.0000   1.0000   1.0000   1.0000   1.0000   1.0000
     1.0000   1.0000   1.0000   1.0000   1.0000   1.0000   1.0000   1.0000
     0.0000   0.0000   0.0000   0.0000

          k =-0.5000-0.5000-0.5000 (  4272 PWs)   bands (ev):

    -5.1670  -4.1613  -4.1613  -3.0474  -2.1389  -0.9049  -0.9049  -0.3590
     7.2737   7.2737   7.4817   7.4817   7.4971   8.9430   9.7295   9.7295
    16.3466  16.4268  16.4268  16.8347

     occupation numbers 
     1.0000   1.0000   1.0000   1.0000   1.0000   1.0000   1.0000   1.0000
     1.0000   1.0000   1.0000   1.0000   1.0000   1.0000   1.0000   1.0000
     0.0000   0.0000   0.0000   0.0000

          k =-0.1250 0.0000 0.1250 (  4359 PWs)   bands (ev):

    -8.7977  -3.1784  -2.5939  -1.5215  -0.6764   0.3554   0.7561   4.0508
     4.6031   4.8129   5.0600   5.5709   5.7086   8.9050  10.0617  10.7681
    13.7653  14.3701  14.6838  15.4878

     occupation numbers 
     1.0000   1.0000   1.0000   1.0000   1.0000   1.0000   1.0000   1.0000
     1.0000   1.0000   1.0000   1.0000   1.0000   1.0000   1.0000   1.0065
     0.0000   0.0000   0.0000   0.0000

          k =-0.1250 0.0000 0.2500 (  4351 PWs)   bands (ev):

    -8.4359  -4.3899  -2.5686  -1.4981  -0.3724   0.4871   2.1449   3.3590
     4.2511   4.4832   4.9618   5.6964   6.0410   8.2520   8.8999  10.0303
    14.2525  14.8767  15.5241  15.8110

     occupation numbers 
     1.0000   1.0000   1.0000   1.0000   1.0000   1.0000   1.0000   1.0000
     1.0000   1.0000   1.0000   1.0000   1.0000   1.0000   1.0000   1.0000
     0.0000   0.0000   0.0000   0.0000

          k =-0.1250 0.0000 0.3750 (  4340 PWs)   bands (ev):

    -7.8679  -5.6176  -2.2524  -1.4884   0.0295   0.3353   2.7615   3.4961
     3.7211   4.3492   4.7112   6.0099   6.7222   7.4200   7.7694   9.0153
    14.5068  15.2128  16.2554  17.3060

     occupation numbers 
     1.0000   1.0000   1.0000   1.0000   1.0000   1.0000   1.0000   1.0000
     1.0000   1.0000   1.0000   1.0000   1.0000   1.0000   1.0000   1.0000
     0.0000   0.0000   0.0000   0.0000

          k =-0.2500 0.0000 0.2500 (  4356 PWs)   bands (ev):

    -8.0782  -4.3182  -3.7325  -1.7625   0.0223   1.6135   1.8521   2.7670
     4.3164   4.7084   4.8958   5.9951   6.4281   7.6748   7.7260   9.8400
    14.6859  15.5209  16.1037  16.5154

     occupation numbers 
     1.0000   1.0000   1.0000   1.0000   1.0000   1.0000   1.0000   1.0000
     1.0000   1.0000   1.0000   1.0000   1.0000   1.0000   1.0000   1.0000
     0.0000   0.0000   0.0000   0.0000

          k =-0.2500 0.0000 0.3750 (  4350 PWs)   bands (ev):

    -7.5178  -5.2996  -3.5235  -2.1575   0.5401   1.1575   2.3333   3.1261
     3.6574   4.9067   5.2465   6.1286   6.5543   6.6961   7.5884   9.1772
    15.3943  15.9530  16.4201  17.4832

     occupation numbers 
     1.0000   1.0000   1.0000   1.0000   1.0000   1.0000   1.0000   1.0000
     1.0000   1.0000   1.0000   1.0000   1.0000   1.0000   1.0000   1.0000
     0.0000   0.0000   0.0000   0.0000

          k =-0.3750 0.0000 0.3750 (  4360 PWs)   bands (ev):

    -6.9725  -5.0015  -4.4810  -2.9318   1.1291   1.6986   2.1903   2.8678
     3.7641   4.3482   5.4946   5.6156   6.4609   6.9377   8.1423   9.0492
    15.6299  16.7529  17.1758  17.9400

     occupation numbers 
     1.0000   1.0000   1.0000   1.0000   1.0000   1.0000   1.0000   1.0000
     1.0000   1.0000   1.0000   1.0000   1.0000   1.0000   1.0000   1.0000
     0.0000   0.0000   0.0000   0.0000

          k = 0.1250-0.1250 0.1250 (  4352 PWs)   bands (ev):

    -8.6754  -3.2000  -2.8009  -2.3093   0.2043   0.6461   0.7813   3.9261
     4.3434   4.5133   5.1957   5.5851   5.9427   8.4179   9.6432  10.8533
    13.8041  14.4782  15.1844  15.6037

     occupation numbers 
     1.0000   1.0000   1.0000   1.0000   1.0000   1.0000   1.0000   1.0000
     1.0000   1.0000   1.0000   1.0000   1.0000   1.0000   1.0000   1.0182
     0.0000   0.0000   0.0000   0.0000

          k = 0.1250-0.1250 0.2500 (  4360 PWs)   bands (ev):

    -8.3144  -4.3011  -2.8397  -2.0906   0.1117   0.6489   2.1125   3.3848
     3.9592   4.7040   5.2608   5.5745   6.1413   7.4307   8.8458  10.4329
    14.2993  14.9025  15.6344  16.1390

     occupation numbers 
     1.0000   1.0000   1.0000   1.0000   1.0000   1.0000   1.0000   1.0000
     1.0000   1.0000   1.0000   1.0000   1.0000   1.0000   1.0000   1.0000
     0.0000   0.0000   0.0000   0.0000

          k =-0.2500 0.1250 0.1250 (  4360 PWs)   bands (ev):

    -8.3152  -4.2954  -2.5757  -2.4715   0.5151   0.5703   1.8321   3.4581
     3.6837   4.6940   5.1967   5.9483   6.1941   7.6112   8.9872   9.9440
    14.3064  15.1939  15.4176  16.0719

     occupation numbers 
     1.0000   1.0000   1.0000   1.0000   1.0000   1.0000   1.0000   1.0000
     1.0000   1.0000   1.0000   1.0000   1.0000   1.0000   1.0000   1.0000
     0.0000   0.0000   0.0000   0.0000

          k = 0.1250-0.1250 0.3750 (  4346 PWs)   bands (ev):

    -7.7484  -5.5139  -2.6131  -1.6276  -0.2904   0.4803   2.8523   3.4392
     3.9736   4.8455   4.9289   5.7523   6.2293   6.9912   7.9814   9.4355
    14.7268  15.3558  16.1436  17.5109

     occupation numbers 
     1.0000   1.0000   1.0000   1.0000   1.0000   1.0000   1.0000   1.0000
     1.0000   1.0000   1.0000   1.0000   1.0000   1.0000   1.0000   1.0000
     0.0000   0.0000   0.0000   0.0000

          k =-0.3750 0.1250 0.1250 (  4346 PWs)   bands (ev):

    -7.7499  -5.5021  -2.3084  -2.2631   0.4224   0.4395   2.8034   3.2274
     3.2586   4.7910   5.0467   6.3659   6.5393   7.0154   7.9366   9.0128
    14.8011  15.6443  16.5635  16.6030

     occupation numbers 
     1.0000   1.0000   1.0000   1.0000   1.0000   1.0000   1.0000   1.0000
     1.0000   1.0000   1.0000   1.0000   1.0000   1.0000   1.0000   1.0000
     0.0000   0.0000   0.0000   0.0000

          k = 0.1250-0.1250-0.5000 (  4340 PWs)   bands (ev):

    -7.2792  -6.2054  -2.4993  -1.2217  -0.6986   0.3748   2.8196   3.7647
     4.3812   4.5840   4.9925   5.2772   6.3815   7.4551   7.7034   8.5128
    14.9720  15.1609  17.0965  18.5441

     occupation numbers 
     1.0000   1.0000   1.0000   1.0000   1.0000   1.0000   1.0000   1.0000
     1.0000   1.0000   1.0000   1.0000   1.0000   1.0000   1.0000   1.0000
     0.0000   0.0000   0.0000   0.0000

          k = 0.2500-0.1250 0.2500 (  4333 PWs)   bands (ev):

    -7.9570  -4.0932  -3.9621  -1.9658  -0.4118   1.6632   1.7777   3.1362
     4.6242   4.6370   5.5089   5.5950   6.4053   6.4126   8.2333  10.5640
    14.6818  15.4290  15.9728  16.3072

     occupation numbers 
     1.0000   1.0000   1.0000   1.0000   1.0000   1.0000   1.0000   1.0000
     1.0000   1.0000   1.0000   1.0000   1.0000   1.0000   1.0000   1.0002
     0.0000   0.0000   0.0000   0.0000

          k =-0.2500 0.1250 0.2500 (  4333 PWs)   bands (ev):

    -7.9585  -4.2432  -3.6410  -2.4164   0.3687   1.2117   1.6221   3.1314
     4.2261   4.5952   5.4983   6.1336   6.3719   6.7755   8.5041   9.8741
    14.6477  15.2909  16.1465  16.5771

     occupation numbers 
     1.0000   1.0000   1.0000   1.0000   1.0000   1.0000   1.0000   1.0000
     1.0000   1.0000   1.0000   1.0000   1.0000   1.0000   1.0000   1.0000
     0.0000   0.0000   0.0000   0.0000

          k = 0.2500-0.1250 0.3750 (  4349 PWs)   bands (ev):

    -7.3984  -5.2006  -3.6383  -1.8031  -0.8508   1.0976   2.5801   3.1420
     4.5391   4.9874   5.2987   5.9837   6.0747   6.8251   7.4749   9.9568
    15.3547  15.9931  16.2580  17.1762

     occupation numbers 
     1.0000   1.0000   1.0000   1.0000   1.0000   1.0000   1.0000   1.0000
     1.0000   1.0000   1.0000   1.0000   1.0000   1.0000   1.0000   1.0000
     0.0000   0.0000   0.0000   0.0000

          k =-0.2500 0.1250 0.3750 (  4349 PWs)   bands (ev):

    -7.4007  -5.2070  -3.4695  -2.3544   0.0779   0.5565   2.4550   3.1825
     4.4444   4.8058   5.5506   5.6682   6.1581   7.4478   7.8496   9.2338
    15.3895  15.7221  16.3261  17.3310

     occupation numbers 
     1.0000   1.0000   1.0000   1.0000   1.0000   1.0000   1.0000   1.0000
     1.0000   1.0000   1.0000   1.0000   1.0000   1.0000   1.0000   1.0000
     0.0000   0.0000   0.0000   0.0000

          k =-0.3750 0.2500 0.1250 (  4349 PWs)   bands (ev):

    -7.4015  -5.1862  -3.4739  -2.4985   0.1992   1.0126   2.1336   3.0963
     3.7962   5.1426   5.5253   5.7344   6.5882   7.3293   7.7646   9.1995
    15.3293  16.1407  16.4978  17.2158

     occupation numbers 
     1.0000   1.0000   1.0000   1.0000   1.0000   1.0000   1.0000   1.0000
     1.0000   1.0000   1.0000   1.0000   1.0000   1.0000   1.0000   1.0000
     0.0000   0.0000   0.0000   0.0000

          k = 0.2500-0.1250-0.5000 (  4348 PWs)   bands (ev):

    -6.9407  -5.8700  -3.3257  -2.1824  -0.4714   0.5656   2.9463   3.3034
     4.2582   4.6689   5.4493   5.9586   6.2419   7.1089   7.9130   8.9276
    15.7780  15.9204  16.6944  18.0845

     occupation numbers 
     1.0000   1.0000   1.0000   1.0000   1.0000   1.0000   1.0000   1.0000
     1.0000   1.0000   1.0000   1.0000   1.0000   1.0000   1.0000   1.0000
     0.0000   0.0000   0.0000   0.0000

          k = 0.3750-0.1250 0.3750 (  4349 PWs)   bands (ev):

    -6.8562  -4.7571  -4.6814  -2.5683  -0.5659   1.6767   1.8212   3.1988
     3.9973   5.1995   5.5045   6.3585   6.3699   7.0773   7.3061   9.9214
    15.8590  16.7080  16.8710  17.1687

     occupation numbers 
     1.0000   1.0000   1.0000   1.0000   1.0000   1.0000   1.0000   1.0000
     1.0000   1.0000   1.0000   1.0000   1.0000   1.0000   1.0000   1.0000
     0.0000   0.0000   0.0000   0.0000

          k =-0.3750 0.1250 0.3750 (  4349 PWs)   bands (ev):

    -6.8600  -4.9164  -4.3751  -2.9702   0.2035   1.2583   1.6533   3.2102
     4.0792   4.8209   5.2392   6.2180   7.0021   7.1001   8.1833   9.0855
    15.6672  16.6388  16.8933  17.6235

     occupation numbers 
     1.0000   1.0000   1.0000   1.0000   1.0000   1.0000   1.0000   1.0000
     1.0000   1.0000   1.0000   1.0000   1.0000   1.0000   1.0000   1.0000
     0.0000   0.0000   0.0000   0.0000

          k = 0.3750-0.1250-0.5000 (  4356 PWs)   bands (ev):

    -6.4223  -5.3539  -4.2909  -3.2143   0.0357   1.0572   2.1956   2.9148
     3.9929   4.9168   5.4374   6.2143   6.7360   7.2993   8.1063   9.3128
    16.1697  16.7155  17.0272  17.4925

     occupation numbers 
     1.0000   1.0000   1.0000   1.0000   1.0000   1.0000   1.0000   1.0000
     1.0000   1.0000   1.0000   1.0000   1.0000   1.0000   1.0000   1.0000
     0.0000   0.0000   0.0000   0.0000

          k = 0.2500-0.2500 0.2500 (  4347 PWs)   bands (ev):

    -7.6063  -4.1263  -3.7151  -3.0928   0.2624   0.9025   0.9453   3.7542
     4.5470   4.8000   5.4730   5.9718   6.6841   6.8557   8.4388  10.0096
    14.7657  15.4357  16.2956  16.5160

     occupation numbers 
     1.0000   1.0000   1.0000   1.0000   1.0000   1.0000   1.0000   1.0000
     1.0000   1.0000   1.0000   1.0000   1.0000   1.0000   1.0000   1.0000
     0.0000   0.0000   0.0000   0.0000

          k = 0.2500-0.2500 0.3750 (  4361 PWs)   bands (ev):

    -7.0578  -4.9234  -3.6788  -2.6658  -0.7151   0.2115   1.5299   3.4249
     4.5512   5.3601   5.9260   6.2569   6.5364   7.5150   7.9116   9.6457
    15.3851  15.9259  16.4048  16.9389

     occupation numbers 
     1.0000   1.0000   1.0000   1.0000   1.0000   1.0000   1.0000   1.0000
     1.0000   1.0000   1.0000   1.0000   1.0000   1.0000   1.0000   1.0000
     0.0000   0.0000   0.0000   0.0000

          k =-0.3750 0.2500 0.2500 (  4361 PWs)   bands (ev):

    -7.0595  -4.8927  -3.4085  -3.2474   0.0849   0.1998   1.0705   3.4103
     4.5639   4.8657   5.7588   6.2322   7.2649   7.5423   8.0429   9.3454
    15.3950  16.1760  16.4279  17.3469

     occupation numbers 
     1.0000   1.0000   1.0000   1.0000   1.0000   1.0000   1.0000   1.0000
     1.0000   1.0000   1.0000   1.0000   1.0000   1.0000   1.0000   1.0000
     0.0000   0.0000   0.0000   0.0000

          k = 0.2500-0.2500-0.5000 (  4360 PWs)   bands (ev):

    -6.6115  -5.5525  -3.5538  -2.2398  -1.3162  -0.0892   2.0048   2.8953
     4.5306   5.8379   6.0830   6.2364   6.7055   7.4269   8.3113   8.9527
    15.9101  16.0636  16.5483  17.8207

     occupation numbers 
     1.0000   1.0000   1.0000   1.0000   1.0000   1.0000   1.0000   1.0000
     1.0000   1.0000   1.0000   1.0000   1.0000   1.0000   1.0000   1.0000
     0.0000   0.0000   0.0000   0.0000

          k = 0.3750-0.2500 0.3750 (  4379 PWs)   bands (ev):

    -6.5303  -4.5728  -4.4247  -2.5917  -1.4471   0.5112   0.6161   2.5033
     5.0021   6.2101   6.4528   6.5940   7.2594   7.5410   7.5730   9.8087
    15.7464  16.3885  16.6816  16.8682

     occupation numbers 
     1.0000   1.0000   1.0000   1.0000   1.0000   1.0000   1.0000   1.0000
     1.0000   1.0000   1.0000   1.0000   1.0000   1.0000   1.0000   1.0000
     0.0000   0.0000   0.0000   0.0000

          k =-0.3750 0.2500 0.3750 (  4379 PWs)   bands (ev):

    -6.5323  -4.6893  -4.1050  -3.1845  -0.5797   0.0864   0.5825   2.5152
     5.0893   5.7555   6.1036   6.6002   7.4223   7.7973   8.2816   9.3207
    15.7321  16.3354  16.7545  17.0595

     occupation numbers 
     1.0000   1.0000   1.0000   1.0000   1.0000   1.0000   1.0000   1.0000
     1.0000   1.0000   1.0000   1.0000   1.0000   1.0000   1.0000   1.0000
     0.0000   0.0000   0.0000   0.0000

          k = 0.3750-0.2500-0.5000 (  4372 PWs)   bands (ev):

    -6.1147  -5.0719  -4.1460  -2.9664  -1.1851  -0.0642   0.9640   1.8980
     5.2385   6.2771   6.5238   6.7360   7.3465   7.5124   8.3973   9.3649
    16.1676  16.4843  16.7758  17.3556

     occupation numbers 
     1.0000   1.0000   1.0000   1.0000   1.0000   1.0000   1.0000   1.0000
     1.0000   1.0000   1.0000   1.0000   1.0000   1.0000   1.0000   1.0000
     0.0000   0.0000   0.0000   0.0000

          k = 0.3750-0.3750 0.3750 (  4377 PWs)   bands (ev):

    -6.0382  -4.4748  -4.0996  -3.2102  -1.3087  -0.3181  -0.2948   1.4330
     6.2100   6.4428   6.6800   7.0026   7.7462   8.1370   8.4994   9.6036
    15.8929  16.4093  16.6564  16.7960

     occupation numbers 
     1.0000   1.0000   1.0000   1.0000   1.0000   1.0000   1.0000   1.0000
     1.0000   1.0000   1.0000   1.0000   1.0000   1.0000   1.0000   1.0000
     0.0000   0.0000   0.0000   0.0000

          k = 0.3750-0.3750-0.5000 (  4370 PWs)   bands (ev):

    -5.6696  -4.6689  -4.1399  -2.8363  -1.9294  -0.6602  -0.0608   0.8196
     6.3728   6.9163   7.0785   7.1936   7.5307   8.2119   8.9842   9.4904
    16.2199  16.4180  16.7674  16.9663

     occupation numbers 
     1.0000   1.0000   1.0000   1.0000   1.0000   1.0000   1.0000   1.0000
     1.0000   1.0000   1.0000   1.0000   1.0000   1.0000   1.0000   1.0000
     0.0000   0.0000   0.0000   0.0000

     the Fermi energy is    11.4854 ev

!    total energy              =     -99.12007548 Ry
     Harris-Foulkes estimate   =     -99.12007565 Ry
     estimated scf accuracy    <       0.00000034 Ry

     The total energy is the sum of the following terms:

     one-electron contribution =      24.77520155 Ry
     hartree contribution      =       8.86210865 Ry
     xc contribution           =     -36.48756289 Ry
     ewald contribution        =     -96.26997520 Ry
     smearing contrib. (-TS)   =       0.00015242 Ry

     convergence has been achieved in   7 iterations

     Writing output data file c-3.766.save/

     init_run     :      2.27s CPU      2.34s WALL (       1 calls)
     electrons    :     29.69s CPU     30.50s WALL (       1 calls)

     Called by init_run:
     wfcinit      :      1.98s CPU      2.04s WALL (       1 calls)
     wfcinit:atom :      0.01s CPU      0.01s WALL (      65 calls)
     wfcinit:wfcr :      1.88s CPU      1.94s WALL (      65 calls)
     potinit      :      0.04s CPU      0.04s WALL (       1 calls)
     hinit0       :      0.08s CPU      0.08s WALL (       1 calls)

     Called by electrons:
     c_bands      :     25.86s CPU     26.54s WALL (       7 calls)
     sum_band     :      3.51s CPU      3.63s WALL (       7 calls)
     v_of_rho     :      0.14s CPU      0.15s WALL (       8 calls)
     v_h          :      0.01s CPU      0.01s WALL (       8 calls)
     v_xc         :      0.13s CPU      0.14s WALL (       8 calls)
     newd         :      0.17s CPU      0.18s WALL (       8 calls)
     mix_rho      :      0.02s CPU      0.02s WALL (       7 calls)

     Called by c_bands:
     init_us_2    :      0.28s CPU      0.29s WALL (     975 calls)
     cegterg      :     24.98s CPU     25.66s WALL (     455 calls)

     Called by sum_band:
     sum_band:bec :      0.01s CPU      0.01s WALL (     455 calls)
     addusdens    :      0.09s CPU      0.09s WALL (       7 calls)

     Called by *egterg:
     h_psi        :     17.62s CPU     18.31s WALL (    1820 calls)
     s_psi        :      1.82s CPU      1.83s WALL (    1820 calls)
     g_psi        :      0.10s CPU      0.10s WALL (    1300 calls)
     cdiaghg      :      1.39s CPU      1.41s WALL (    1755 calls)
     cegterg:over :      2.69s CPU      2.70s WALL (    1300 calls)
     cegterg:upda :      1.04s CPU      1.04s WALL (    1300 calls)
     cegterg:last :      0.53s CPU      0.53s WALL (     455 calls)

     Called by h_psi:
     h_psi:pot    :     17.57s CPU     18.26s WALL (    1820 calls)
     h_psi:calbec :      2.64s CPU      2.73s WALL (    1820 calls)
     vloc_psi     :     13.06s CPU     13.63s WALL (    1820 calls)
     add_vuspsi   :      1.86s CPU      1.88s WALL (    1820 calls)

     General routines
     calbec       :      3.52s CPU      3.63s WALL (    2275 calls)
     fft          :      0.09s CPU      0.10s WALL (     102 calls)
     ffts         :      0.01s CPU      0.01s WALL (      15 calls)
     fftw         :     13.99s CPU     14.60s WALL (   62030 calls)
     interpolate  :      0.01s CPU      0.01s WALL (       8 calls)

     Parallel routines
     fft_scatt_xy :      1.20s CPU      1.25s WALL (   62147 calls)
     fft_scatt_yz :      6.17s CPU      6.45s WALL (   62147 calls)

     PWSCF        :     32.37s CPU     33.35s WALL


   This run was terminated on:  19:12:48  26May2022            

=------------------------------------------------------------------------------=
   JOB DONE.
=------------------------------------------------------------------------------=
