
     Program PWSCF v.6.4.1 starts on 26May2022 at 19: 7:36 

     This program is part of the open-source Quantum ESPRESSO suite
     for quantum simulation of materials; please cite
         "P. Giannozzi et al., J. Phys.:Condens. Matter 21 395502 (2009);
         "P. Giannozzi et al., J. Phys.:Condens. Matter 29 465901 (2017);
          URL http://www.quantum-espresso.org", 
     in publications or presentations arising from this work. More details at
     http://www.quantum-espresso.org/quote

     Parallel version (MPI), running on     6 processors

     MPI processes distributed on     1 nodes
     R & G space division:  proc/nbgrp/npool/nimage =       6
     Reading input from c-3.546.in

     Current dimensions of program PWSCF are:
     Max number of different atomic species (ntypx) = 10
     Max number of k-points (npk) =  40000
     Max angular momentum in pseudopotentials (lmaxx) =  3

     Subspace diagonalization in iterative solution of the eigenvalue problem:
     a serial algorithm will be used

     Message from routine setup:
     DEPRECATED: symmetry with ibrav=0, use correct ibrav instead

     Parallelization info
     --------------------
     sticks:   dense  smooth     PW     G-vecs:    dense   smooth      PW
     Min         333     189     56                11213     4831     786
     Max         334     190     57                11216     4834     789
     Sum        2001    1137    341                67283    28991    4729



     bravais-lattice index     =            0
     lattice parameter (alat)  =       6.7010  a.u.
     unit-cell volume          =     300.8935 (a.u.)^3
     number of atoms/cell      =            8
     number of atomic types    =            1
     number of electrons       =        32.00
     number of Kohn-Sham states=           20
     kinetic-energy cutoff     =      80.0000  Ry
     charge density cutoff     =     560.0000  Ry
     convergence threshold     =      1.0E-06
     mixing beta               =       0.7000
     number of iterations used =            8  plain     mixing
     Exchange-correlation      = PBE ( 1  4  3  4 0 0)

     celldm(1)=   6.700969  celldm(2)=   0.000000  celldm(3)=   0.000000
     celldm(4)=   0.000000  celldm(5)=   0.000000  celldm(6)=   0.000000

     crystal axes: (cart. coord. in units of alat)
               a(1) = (   1.000000   0.000000   0.000000 )  
               a(2) = (   0.000000   1.000000   0.000000 )  
               a(3) = (   0.000000   0.000000   1.000000 )  

     reciprocal axes: (cart. coord. in units 2 pi/alat)
               b(1) = (  1.000000  0.000000  0.000000 )  
               b(2) = (  0.000000  1.000000  0.000000 )  
               b(3) = (  0.000000  0.000000  1.000000 )  


     PseudoPot. # 1 for C  read from file:
     /home/cristian/Escritorio/Proyecto_Grafeno/pseudopotenciales/C.pbe-n-rrkjus_psl.1.0.0.UPF
     MD5 check sum: 1fdd950c42eb37d8afe3dd2f8d12311e
     Pseudo is Ultrasoft + core correction, Zval =  4.0
     Generated using "atomic" code by A. Dal Corso v.6.3MaX
     Using radial grid of 1073 points,  4 beta functions with: 
                l(1) =   0
                l(2) =   0
                l(3) =   1
                l(4) =   1
     Q(r) pseudized with 0 coefficients 


     atomic species   valence    mass     pseudopotential
        C              4.00    12.01100     C ( 1.00)

      6 Sym. Ops. (no inversion) found


                                    s                        frac. trans.

      isym =  1     identity                                     

 cryst.   s( 1) = (     1          0          0      )
                  (     0          1          0      )
                  (     0          0          1      )

 cart.    s( 1) = (  1.0000000  0.0000000  0.0000000 )
                  (  0.0000000  1.0000000  0.0000000 )
                  (  0.0000000  0.0000000  1.0000000 )


      isym =  2     120 deg rotation - cart. axis [-1,-1,-1]     

 cryst.   s( 2) = (     0          0          1      )
                  (     1          0          0      )
                  (     0          1          0      )

 cart.    s( 2) = (  0.0000000  1.0000000  0.0000000 )
                  (  0.0000000  0.0000000  1.0000000 )
                  (  1.0000000  0.0000000  0.0000000 )


      isym =  3     120 deg rotation - cart. axis [1,1,1]        

 cryst.   s( 3) = (     0          1          0      )
                  (     0          0          1      )
                  (     1          0          0      )

 cart.    s( 3) = (  0.0000000  0.0000000  1.0000000 )
                  (  1.0000000  0.0000000  0.0000000 )
                  (  0.0000000  1.0000000  0.0000000 )


      isym =  4     inv. 180 deg rotation - cart. axis [1,-1,0]  

 cryst.   s( 4) = (     0          1          0      )
                  (     1          0          0      )
                  (     0          0          1      )

 cart.    s( 4) = (  0.0000000  1.0000000  0.0000000 )
                  (  1.0000000  0.0000000  0.0000000 )
                  (  0.0000000  0.0000000  1.0000000 )


      isym =  5     inv. 180 deg rotation - cart. axis [-1,0,1]  

 cryst.   s( 5) = (     0          0          1      )
                  (     0          1          0      )
                  (     1          0          0      )

 cart.    s( 5) = (  0.0000000  0.0000000  1.0000000 )
                  (  0.0000000  1.0000000  0.0000000 )
                  (  1.0000000  0.0000000  0.0000000 )


      isym =  6     inv. 180 deg rotation - cart. axis [0,1,-1]  

 cryst.   s( 6) = (     1          0          0      )
                  (     0          0          1      )
                  (     0          1          0      )

 cart.    s( 6) = (  1.0000000  0.0000000  0.0000000 )
                  (  0.0000000  0.0000000  1.0000000 )
                  (  0.0000000  1.0000000  0.0000000 )


   Cartesian axes

     site n.     atom                  positions (alat units)
         1           C   tau(   1) = (   0.0000000   0.0000000   0.0000000  )
         2           C   tau(   2) = (   0.5028201   0.5028201   0.0000000  )
         3           C   tau(   3) = (   0.0000000   0.5028201   0.5028201  )
         4           C   tau(   4) = (   0.5028201   0.0000000   0.5028201  )
         5           C   tau(   5) = (   0.2514100   0.2514100   0.2514100  )
         6           C   tau(   6) = (   0.7542301   0.7542301   0.2514100  )
         7           C   tau(   7) = (   0.2514100   0.7542301   0.7542301  )
         8           C   tau(   8) = (   0.7542301   0.2514100   0.7542301  )

   Crystallographic axes

     site n.     atom                  positions (cryst. coord.)
         1           C   tau(   1) = (  0.0000000  0.0000000  0.0000000  )
         2           C   tau(   2) = (  0.5028201  0.5028201  0.0000000  )
         3           C   tau(   3) = (  0.0000000  0.5028201  0.5028201  )
         4           C   tau(   4) = (  0.5028201  0.0000000  0.5028201  )
         5           C   tau(   5) = (  0.2514100  0.2514100  0.2514100  )
         6           C   tau(   6) = (  0.7542301  0.7542301  0.2514100  )
         7           C   tau(   7) = (  0.2514100  0.7542301  0.7542301  )
         8           C   tau(   8) = (  0.7542301  0.2514100  0.7542301  )

     number of k points=    65  Marzari-Vanderbilt smearing, width (Ry)=  0.0200
                       cart. coord. in units 2pi/alat
        k(    1) = (   0.0000000   0.0000000   0.0000000), wk =   0.0039062
        k(    2) = (   0.0000000   0.0000000   0.1250000), wk =   0.0234375
        k(    3) = (   0.0000000   0.0000000   0.2500000), wk =   0.0234375
        k(    4) = (   0.0000000   0.0000000   0.3750000), wk =   0.0234375
        k(    5) = (   0.0000000   0.0000000  -0.5000000), wk =   0.0117188
        k(    6) = (   0.0000000   0.1250000   0.1250000), wk =   0.0234375
        k(    7) = (   0.0000000   0.1250000   0.2500000), wk =   0.0468750
        k(    8) = (   0.0000000   0.1250000   0.3750000), wk =   0.0468750
        k(    9) = (   0.0000000   0.1250000  -0.5000000), wk =   0.0468750
        k(   10) = (   0.0000000   0.2500000   0.2500000), wk =   0.0234375
        k(   11) = (   0.0000000   0.2500000   0.3750000), wk =   0.0468750
        k(   12) = (   0.0000000   0.2500000  -0.5000000), wk =   0.0468750
        k(   13) = (   0.0000000   0.3750000   0.3750000), wk =   0.0234375
        k(   14) = (   0.0000000   0.3750000  -0.5000000), wk =   0.0468750
        k(   15) = (   0.0000000  -0.5000000  -0.5000000), wk =   0.0117188
        k(   16) = (   0.1250000   0.1250000   0.1250000), wk =   0.0078125
        k(   17) = (   0.1250000   0.1250000   0.2500000), wk =   0.0234375
        k(   18) = (   0.1250000   0.1250000   0.3750000), wk =   0.0234375
        k(   19) = (   0.1250000   0.1250000  -0.5000000), wk =   0.0234375
        k(   20) = (   0.1250000   0.2500000   0.2500000), wk =   0.0234375
        k(   21) = (   0.1250000   0.2500000   0.3750000), wk =   0.0468750
        k(   22) = (   0.1250000   0.2500000  -0.5000000), wk =   0.0468750
        k(   23) = (   0.1250000   0.3750000   0.3750000), wk =   0.0234375
        k(   24) = (   0.1250000   0.3750000  -0.5000000), wk =   0.0468750
        k(   25) = (   0.1250000  -0.5000000  -0.5000000), wk =   0.0234375
        k(   26) = (   0.2500000   0.2500000   0.2500000), wk =   0.0078125
        k(   27) = (   0.2500000   0.2500000   0.3750000), wk =   0.0234375
        k(   28) = (   0.2500000   0.2500000  -0.5000000), wk =   0.0234375
        k(   29) = (   0.2500000   0.3750000   0.3750000), wk =   0.0234375
        k(   30) = (   0.2500000   0.3750000  -0.5000000), wk =   0.0468750
        k(   31) = (   0.2500000  -0.5000000  -0.5000000), wk =   0.0234375
        k(   32) = (   0.3750000   0.3750000   0.3750000), wk =   0.0078125
        k(   33) = (   0.3750000   0.3750000  -0.5000000), wk =   0.0234375
        k(   34) = (   0.3750000  -0.5000000  -0.5000000), wk =   0.0234375
        k(   35) = (  -0.5000000  -0.5000000  -0.5000000), wk =   0.0039062
        k(   36) = (  -0.1250000   0.0000000   0.1250000), wk =   0.0234375
        k(   37) = (  -0.1250000   0.0000000   0.2500000), wk =   0.0468750
        k(   38) = (  -0.1250000   0.0000000   0.3750000), wk =   0.0468750
        k(   39) = (  -0.2500000   0.0000000   0.2500000), wk =   0.0234375
        k(   40) = (  -0.2500000   0.0000000   0.3750000), wk =   0.0468750
        k(   41) = (  -0.3750000   0.0000000   0.3750000), wk =   0.0234375
        k(   42) = (   0.1250000  -0.1250000   0.1250000), wk =   0.0234375
        k(   43) = (   0.1250000  -0.1250000   0.2500000), wk =   0.0468750
        k(   44) = (  -0.2500000   0.1250000   0.1250000), wk =   0.0234375
        k(   45) = (   0.1250000  -0.1250000   0.3750000), wk =   0.0468750
        k(   46) = (  -0.3750000   0.1250000   0.1250000), wk =   0.0234375
        k(   47) = (   0.1250000  -0.1250000  -0.5000000), wk =   0.0234375
        k(   48) = (   0.2500000  -0.1250000   0.2500000), wk =   0.0234375
        k(   49) = (  -0.2500000   0.1250000   0.2500000), wk =   0.0468750
        k(   50) = (   0.2500000  -0.1250000   0.3750000), wk =   0.0468750
        k(   51) = (  -0.2500000   0.1250000   0.3750000), wk =   0.0468750
        k(   52) = (  -0.3750000   0.2500000   0.1250000), wk =   0.0468750
        k(   53) = (   0.2500000  -0.1250000  -0.5000000), wk =   0.0468750
        k(   54) = (   0.3750000  -0.1250000   0.3750000), wk =   0.0234375
        k(   55) = (  -0.3750000   0.1250000   0.3750000), wk =   0.0468750
        k(   56) = (   0.3750000  -0.1250000  -0.5000000), wk =   0.0468750
        k(   57) = (   0.2500000  -0.2500000   0.2500000), wk =   0.0234375
        k(   58) = (   0.2500000  -0.2500000   0.3750000), wk =   0.0468750
        k(   59) = (  -0.3750000   0.2500000   0.2500000), wk =   0.0234375
        k(   60) = (   0.2500000  -0.2500000  -0.5000000), wk =   0.0234375
        k(   61) = (   0.3750000  -0.2500000   0.3750000), wk =   0.0234375
        k(   62) = (  -0.3750000   0.2500000   0.3750000), wk =   0.0468750
        k(   63) = (   0.3750000  -0.2500000  -0.5000000), wk =   0.0468750
        k(   64) = (   0.3750000  -0.3750000   0.3750000), wk =   0.0234375
        k(   65) = (   0.3750000  -0.3750000  -0.5000000), wk =   0.0234375

                       cryst. coord.
        k(    1) = (   0.0000000   0.0000000   0.0000000), wk =   0.0039062
        k(    2) = (   0.0000000   0.0000000   0.1250000), wk =   0.0234375
        k(    3) = (   0.0000000   0.0000000   0.2500000), wk =   0.0234375
        k(    4) = (   0.0000000   0.0000000   0.3750000), wk =   0.0234375
        k(    5) = (   0.0000000   0.0000000  -0.5000000), wk =   0.0117188
        k(    6) = (   0.0000000   0.1250000   0.1250000), wk =   0.0234375
        k(    7) = (   0.0000000   0.1250000   0.2500000), wk =   0.0468750
        k(    8) = (   0.0000000   0.1250000   0.3750000), wk =   0.0468750
        k(    9) = (   0.0000000   0.1250000  -0.5000000), wk =   0.0468750
        k(   10) = (   0.0000000   0.2500000   0.2500000), wk =   0.0234375
        k(   11) = (   0.0000000   0.2500000   0.3750000), wk =   0.0468750
        k(   12) = (   0.0000000   0.2500000  -0.5000000), wk =   0.0468750
        k(   13) = (   0.0000000   0.3750000   0.3750000), wk =   0.0234375
        k(   14) = (   0.0000000   0.3750000  -0.5000000), wk =   0.0468750
        k(   15) = (   0.0000000  -0.5000000  -0.5000000), wk =   0.0117188
        k(   16) = (   0.1250000   0.1250000   0.1250000), wk =   0.0078125
        k(   17) = (   0.1250000   0.1250000   0.2500000), wk =   0.0234375
        k(   18) = (   0.1250000   0.1250000   0.3750000), wk =   0.0234375
        k(   19) = (   0.1250000   0.1250000  -0.5000000), wk =   0.0234375
        k(   20) = (   0.1250000   0.2500000   0.2500000), wk =   0.0234375
        k(   21) = (   0.1250000   0.2500000   0.3750000), wk =   0.0468750
        k(   22) = (   0.1250000   0.2500000  -0.5000000), wk =   0.0468750
        k(   23) = (   0.1250000   0.3750000   0.3750000), wk =   0.0234375
        k(   24) = (   0.1250000   0.3750000  -0.5000000), wk =   0.0468750
        k(   25) = (   0.1250000  -0.5000000  -0.5000000), wk =   0.0234375
        k(   26) = (   0.2500000   0.2500000   0.2500000), wk =   0.0078125
        k(   27) = (   0.2500000   0.2500000   0.3750000), wk =   0.0234375
        k(   28) = (   0.2500000   0.2500000  -0.5000000), wk =   0.0234375
        k(   29) = (   0.2500000   0.3750000   0.3750000), wk =   0.0234375
        k(   30) = (   0.2500000   0.3750000  -0.5000000), wk =   0.0468750
        k(   31) = (   0.2500000  -0.5000000  -0.5000000), wk =   0.0234375
        k(   32) = (   0.3750000   0.3750000   0.3750000), wk =   0.0078125
        k(   33) = (   0.3750000   0.3750000  -0.5000000), wk =   0.0234375
        k(   34) = (   0.3750000  -0.5000000  -0.5000000), wk =   0.0234375
        k(   35) = (  -0.5000000  -0.5000000  -0.5000000), wk =   0.0039062
        k(   36) = (  -0.1250000   0.0000000   0.1250000), wk =   0.0234375
        k(   37) = (  -0.1250000   0.0000000   0.2500000), wk =   0.0468750
        k(   38) = (  -0.1250000   0.0000000   0.3750000), wk =   0.0468750
        k(   39) = (  -0.2500000   0.0000000   0.2500000), wk =   0.0234375
        k(   40) = (  -0.2500000   0.0000000   0.3750000), wk =   0.0468750
        k(   41) = (  -0.3750000   0.0000000   0.3750000), wk =   0.0234375
        k(   42) = (   0.1250000  -0.1250000   0.1250000), wk =   0.0234375
        k(   43) = (   0.1250000  -0.1250000   0.2500000), wk =   0.0468750
        k(   44) = (  -0.2500000   0.1250000   0.1250000), wk =   0.0234375
        k(   45) = (   0.1250000  -0.1250000   0.3750000), wk =   0.0468750
        k(   46) = (  -0.3750000   0.1250000   0.1250000), wk =   0.0234375
        k(   47) = (   0.1250000  -0.1250000  -0.5000000), wk =   0.0234375
        k(   48) = (   0.2500000  -0.1250000   0.2500000), wk =   0.0234375
        k(   49) = (  -0.2500000   0.1250000   0.2500000), wk =   0.0468750
        k(   50) = (   0.2500000  -0.1250000   0.3750000), wk =   0.0468750
        k(   51) = (  -0.2500000   0.1250000   0.3750000), wk =   0.0468750
        k(   52) = (  -0.3750000   0.2500000   0.1250000), wk =   0.0468750
        k(   53) = (   0.2500000  -0.1250000  -0.5000000), wk =   0.0468750
        k(   54) = (   0.3750000  -0.1250000   0.3750000), wk =   0.0234375
        k(   55) = (  -0.3750000   0.1250000   0.3750000), wk =   0.0468750
        k(   56) = (   0.3750000  -0.1250000  -0.5000000), wk =   0.0468750
        k(   57) = (   0.2500000  -0.2500000   0.2500000), wk =   0.0234375
        k(   58) = (   0.2500000  -0.2500000   0.3750000), wk =   0.0468750
        k(   59) = (  -0.3750000   0.2500000   0.2500000), wk =   0.0234375
        k(   60) = (   0.2500000  -0.2500000  -0.5000000), wk =   0.0234375
        k(   61) = (   0.3750000  -0.2500000   0.3750000), wk =   0.0234375
        k(   62) = (  -0.3750000   0.2500000   0.3750000), wk =   0.0468750
        k(   63) = (   0.3750000  -0.2500000  -0.5000000), wk =   0.0468750
        k(   64) = (   0.3750000  -0.3750000   0.3750000), wk =   0.0234375
        k(   65) = (   0.3750000  -0.3750000  -0.5000000), wk =   0.0234375

     Dense  grid:    67283 G-vectors     FFT dimensions: (  54,  54,  54)

     Smooth grid:    28991 G-vectors     FFT dimensions: (  40,  40,  40)

     Dynamical RAM for                 wfc:       0.18 MB

     Dynamical RAM for     wfc (w. buffer):      12.21 MB

     Dynamical RAM for           str. fact:       0.17 MB

     Dynamical RAM for           local pot:       0.00 MB

     Dynamical RAM for          nlocal pot:       0.59 MB

     Dynamical RAM for                qrad:       0.58 MB

     Dynamical RAM for          rho,v,vnew:       1.11 MB

     Dynamical RAM for               rhoin:       0.37 MB

     Dynamical RAM for            rho*nmix:       2.74 MB

     Dynamical RAM for           G-vectors:       0.68 MB

     Dynamical RAM for          h,s,v(r/c):       0.29 MB

     Dynamical RAM for          <psi|beta>:       0.02 MB

     Dynamical RAM for                 psi:       0.74 MB

     Dynamical RAM for                hpsi:       0.74 MB

     Dynamical RAM for                spsi:       0.74 MB

     Dynamical RAM for      wfcinit/wfcrot:       0.62 MB

     Dynamical RAM for           addusdens:       8.73 MB

     Estimated static dynamical RAM per process >      19.79 MB

     Estimated max dynamical RAM per process >      28.52 MB

     Estimated total dynamical RAM >     171.13 MB

     Check: negative core charge=   -0.000003

     Initial potential from superposition of free atoms

     starting charge   31.99967, renormalised to   32.00000
     Starting wfcs are   32 randomized atomic wfcs

     total cpu time spent up to now is        2.1 secs

     Self-consistent Calculation

     iteration #  1     ecut=    80.00 Ry     beta= 0.70
     Davidson diagonalization with overlap
     ethr =  1.00E-02,  avg # of iterations =  3.0

     total cpu time spent up to now is        5.9 secs

     total energy              =     -99.31040429 Ry
     Harris-Foulkes estimate   =     -99.53230751 Ry
     estimated scf accuracy    <       0.49221931 Ry

     iteration #  2     ecut=    80.00 Ry     beta= 0.70
     Davidson diagonalization with overlap
     ethr =  1.54E-03,  avg # of iterations =  1.5

     total cpu time spent up to now is        8.4 secs

     total energy              =     -99.34622682 Ry
     Harris-Foulkes estimate   =     -99.34698183 Ry
     estimated scf accuracy    <       0.00978522 Ry

     iteration #  3     ecut=    80.00 Ry     beta= 0.70
     Davidson diagonalization with overlap
     ethr =  3.06E-05,  avg # of iterations =  6.7

     total cpu time spent up to now is       12.9 secs

     total energy              =     -99.34779561 Ry
     Harris-Foulkes estimate   =     -99.34774449 Ry
     estimated scf accuracy    <       0.00027802 Ry

     iteration #  4     ecut=    80.00 Ry     beta= 0.70
     Davidson diagonalization with overlap
     ethr =  8.69E-07,  avg # of iterations =  3.1

     total cpu time spent up to now is       16.3 secs

     total energy              =     -99.34782871 Ry
     Harris-Foulkes estimate   =     -99.34784116 Ry
     estimated scf accuracy    <       0.00002554 Ry

     iteration #  5     ecut=    80.00 Ry     beta= 0.70
     Davidson diagonalization with overlap
     ethr =  7.98E-08,  avg # of iterations =  2.0

     total cpu time spent up to now is       19.5 secs

     total energy              =     -99.34783520 Ry
     Harris-Foulkes estimate   =     -99.34783561 Ry
     estimated scf accuracy    <       0.00000139 Ry

     iteration #  6     ecut=    80.00 Ry     beta= 0.70
     Davidson diagonalization with overlap
     ethr =  4.36E-09,  avg # of iterations =  2.0

     total cpu time spent up to now is       22.8 secs

     End of self-consistent calculation

          k = 0.0000 0.0000 0.0000 (  3695 PWs)   bands (ev):

    -8.0489   0.6924   0.7276   0.7276   0.8102   0.8102   0.8446   7.1906
     7.1906   7.2157   7.2647   7.2864   7.2864  13.5738  13.5738  13.8059
    18.3269  18.4020  18.4020  18.5607

     occupation numbers 
     1.0000   1.0000   1.0000   1.0000   1.0000   1.0000   1.0000   1.0000
     1.0000   1.0000   1.0000   1.0000   1.0000   1.0000   1.0000   1.0000
     0.0000   0.0000   0.0000   0.0000

          k = 0.0000 0.0000 0.1250 (  3659 PWs)   bands (ev):

    -7.9032  -1.1805   0.8195   0.8197   0.9049   0.9053   2.8552   6.8930
     6.8960   6.9588   6.9593   7.3586   7.4114  13.0220  13.0997  13.3518
    18.0151  18.9627  18.9914  19.1197

     occupation numbers 
     1.0000   1.0000   1.0000   1.0000   1.0000   1.0000   1.0000   1.0000
     1.0000   1.0000   1.0000   1.0000   1.0000   1.0000   1.0000   1.0000
     0.0000   0.0000   0.0000   0.0000

          k = 0.0000 0.0000 0.2500 (  3651 PWs)   bands (ev):

    -7.4670  -2.9363   1.0695   1.0695   1.1642   1.1646   5.0008   6.1774
     6.1777   6.2355   6.2360   7.7801   7.8368  11.8459  11.9216  12.3469
    17.8503  18.8936  20.3848  20.5441

     occupation numbers 
     1.0000   1.0000   1.0000   1.0000   1.0000   1.0000   1.0000   1.0000
     1.0000   1.0000   1.0000   1.0000   1.0000   1.0000   1.0000   1.0000
     0.0000   0.0000   0.0000   0.0000

          k = 0.0000 0.0000 0.3750 (  3635 PWs)   bands (ev):

    -6.7443  -4.4633   1.3759   1.3761   1.4861   1.4866   5.4520   5.4551
     5.5150   5.5180   7.1249   8.4720   8.5366  10.5777  10.6272  10.9117
    17.9156  18.5181  22.0485  22.6404

     occupation numbers 
     1.0000   1.0000   1.0000   1.0000   1.0000   1.0000   1.0000   1.0000
     1.0000   1.0000   1.0000   1.0000   1.0000   1.0000   1.0000   1.0000
     0.0000   0.0000   0.0000   0.0000

          k = 0.0000 0.0000-0.5000 (  3588 PWs)   bands (ev):

    -5.7961  -5.6817   1.5290   1.5293   1.6493   1.6498   5.1369   5.1391
     5.2056   5.2086   9.0882   9.1260   9.3111   9.4419   9.5315   9.5561
    18.1313  18.1919  24.0027  24.0452

     occupation numbers 
     1.0000   1.0000   1.0000   1.0000   1.0000   1.0000   1.0000   1.0000
     1.0000   1.0000   1.0000   1.0000   1.0000   1.0000   1.0000   1.0000
     0.0000   0.0000   0.0000   0.0000

          k = 0.0000 0.1250 0.1250 (  3659 PWs)   bands (ev):

    -7.7576  -1.0616  -1.0598   0.8403   1.0489   2.8870   2.8883   5.9771
     7.0202   7.0211   7.1568   7.1576   7.4589  12.2564  12.5751  13.3934
    18.5766  18.6164  18.7235  19.6582

     occupation numbers 
     1.0000   1.0000   1.0000   1.0000   1.0000   1.0000   1.0000   1.0000
     1.0000   1.0000   1.0000   1.0000   1.0000   1.0000   1.0000   1.0000
     0.0000   0.0000   0.0000   0.0000

          k = 0.0000 0.1250 0.2500 (  3651 PWs)   bands (ev):

    -7.3221  -2.8050  -0.7156   0.9050   1.4019   2.9364   4.8879   5.0050
     6.2000   6.6488   7.3675   7.4487   7.7294  10.9755  11.4200  12.8057
    18.4566  19.4877  19.5012  20.1928

     occupation numbers 
     1.0000   1.0000   1.0000   1.0000   1.0000   1.0000   1.0000   1.0000
     1.0000   1.0000   1.0000   1.0000   1.0000   1.0000   1.0000   1.0000
     0.0000   0.0000   0.0000   0.0000

          k = 0.0000 0.1250 0.3750 (  3622 PWs)   bands (ev):

    -6.6007  -4.3257  -0.1887   0.8155   1.9073   2.8185   4.4450   5.2713
     6.3336   6.6975   6.9163   8.1039   8.7527   9.6249  10.1722  11.6023
    18.5251  19.1386  21.1781  22.3085

     occupation numbers 
     1.0000   1.0000   1.0000   1.0000   1.0000   1.0000   1.0000   1.0000
     1.0000   1.0000   1.0000   1.0000   1.0000   1.0000   1.0000   1.0000
     0.0000   0.0000   0.0000   0.0000

          k = 0.0000 0.1250-0.5000 (  3616 PWs)   bands (ev):

    -5.6549  -5.5403   0.3480   0.4550   2.4039   2.4702   4.5650   4.5994
     6.4184   6.4956   8.1736   8.2662   9.0096   9.0613  10.0963  10.2126
    18.7444  18.8100  23.1427  23.2856

     occupation numbers 
     1.0000   1.0000   1.0000   1.0000   1.0000   1.0000   1.0000   1.0000
     1.0000   1.0000   1.0000   1.0000   1.0000   1.0000   1.0000   1.0000
     0.0000   0.0000   0.0000   0.0000

          k = 0.0000 0.2500 0.2500 (  3623 PWs)   bands (ev):

    -6.8889  -2.4186  -2.4174   0.5624   1.8303   4.1751   4.5427   4.5524
     6.5378   6.5390   7.6320   7.6340   8.1609   9.6736  10.3447  12.8152
    19.3741  20.0469  20.0522  20.5499

     occupation numbers 
     1.0000   1.0000   1.0000   1.0000   1.0000   1.0000   1.0000   1.0000
     1.0000   1.0000   1.0000   1.0000   1.0000   1.0000   1.0000   1.0000
     0.0000   0.0000   0.0000   0.0000

          k = 0.0000 0.2500 0.3750 (  3645 PWs)   bands (ev):

    -6.1718  -3.9166  -1.7959  -0.1257   2.4353   3.8889   4.1179   5.5094
     5.8547   7.1667   7.7785   8.3092   8.3659   9.0815   9.2017  12.0371
    20.0932  20.3580  20.5912  22.1843

     occupation numbers 
     1.0000   1.0000   1.0000   1.0000   1.0000   1.0000   1.0000   1.0000
     1.0000   1.0000   1.0000   1.0000   1.0000   1.0000   1.0000   1.0000
     0.0000   0.0000   0.0000   0.0000

          k = 0.0000 0.2500-0.5000 (  3628 PWs)   bands (ev):

    -5.2336  -5.1185  -1.0473  -0.9320   3.1204   3.1801   4.6160   4.6514
     7.0354   7.1177   7.9943   8.0230   8.1095   8.1514  10.6625  10.7834
    20.2737  20.3530  22.0436  22.1866

     occupation numbers 
     1.0000   1.0000   1.0000   1.0000   1.0000   1.0000   1.0000   1.0000
     1.0000   1.0000   1.0000   1.0000   1.0000   1.0000   1.0000   1.0000
     0.0000   0.0000   0.0000   0.0000

          k = 0.0000 0.3750 0.3750 (  3636 PWs)   bands (ev):

    -5.4631  -3.2479  -3.2469  -1.2599   3.1198   4.3964   4.8649   4.8769
     6.0889   6.0946   7.1240   7.9928   9.2286   9.4776   9.4815  11.8215
    20.4456  21.9632  22.1618  22.1671

     occupation numbers 
     1.0000   1.0000   1.0000   1.0000   1.0000   1.0000   1.0000   1.0000
     1.0000   1.0000   1.0000   1.0000   1.0000   1.0000   1.0000   1.0000
     0.0000   0.0000   0.0000   0.0000

          k = 0.0000 0.3750-0.5000 (  3626 PWs)   bands (ev):

    -4.5398  -4.4239  -2.4003  -2.2832   3.9044   3.9652   5.0993   5.1378
     5.8967   5.9677   6.9235   6.9679   9.5213   9.6329  10.8723  10.9882
    21.4549  21.5912  22.1480  22.2783

     occupation numbers 
     1.0000   1.0000   1.0000   1.0000   1.0000   1.0000   1.0000   1.0000
     1.0000   1.0000   1.0000   1.0000   1.0000   1.0000   1.0000   1.0000
     0.0000   0.0000   0.0000   0.0000

          k = 0.0000-0.5000-0.5000 (  3628 PWs)   bands (ev):

    -3.6471  -3.5273  -3.5254  -3.4065   4.8177   4.8329   4.8692   4.9162
     5.8662   5.9233   5.9399   5.9865  10.4182  10.5953  10.6302  10.6948
    21.5542  21.6768  21.7160  21.8195

     occupation numbers 
     1.0000   1.0000   1.0000   1.0000   1.0000   1.0000   1.0000   1.0000
     1.0000   1.0000   1.0000   1.0000   1.0000   1.0000   1.0000   1.0000
     0.0000   0.0000   0.0000   0.0000

          k = 0.1250 0.1250 0.1250 (  3653 PWs)   bands (ev):

    -7.6122  -0.9472  -0.9455  -0.9455   2.8756   2.8756   2.8773   6.2223
     6.2234   6.2234   7.5915   7.5915   7.5954  11.2961  12.9311  12.9311
    18.6599  18.6691  18.6691  20.2158

     occupation numbers 
     1.0000   1.0000   1.0000   1.0000   1.0000   1.0000   1.0000   1.0000
     1.0000   1.0000   1.0000   1.0000   1.0000   1.0000   1.0000   1.0000
     0.0000   0.0000   0.0000   0.0000

          k = 0.1250 0.1250 0.2500 (  3650 PWs)   bands (ev):

    -7.1774  -2.6756  -0.6237  -0.6227   2.7465   2.7477   4.6367   5.4420
     5.4426   7.0160   7.5413   7.5428   8.0026   9.9246  11.8790  12.6245
    18.7044  19.5383  19.5446  19.9575

     occupation numbers 
     1.0000   1.0000   1.0000   1.0000   1.0000   1.0000   1.0000   1.0000
     1.0000   1.0000   1.0000   1.0000   1.0000   1.0000   1.0000   1.0000
     0.0000   0.0000   0.0000   0.0000

          k = 0.1250 0.1250 0.3750 (  3640 PWs)   bands (ev):

    -6.4574  -4.1890  -0.1793  -0.1785   2.3412   2.3420   5.1545   5.1599
     6.0201   7.1567   7.1578   8.4307   8.5818   8.6699  10.6979  11.5511
    18.8725  19.5813  21.2288  21.2365

     occupation numbers 
     1.0000   1.0000   1.0000   1.0000   1.0000   1.0000   1.0000   1.0000
     1.0000   1.0000   1.0000   1.0000   1.0000   1.0000   1.0000   1.0000
     0.0000   0.0000   0.0000   0.0000

          k = 0.1250 0.1250-0.5000 (  3634 PWs)   bands (ev):

    -5.5142  -5.3995   0.0838   0.0839   2.0501   2.0503   5.1509   5.1547
     6.9328   6.9384   7.2049   7.3298   9.4776   9.6999  10.0121  10.1482
    19.1395  19.2309  22.8611  22.8645

     occupation numbers 
     1.0000   1.0000   1.0000   1.0000   1.0000   1.0000   1.0000   1.0000
     1.0000   1.0000   1.0000   1.0000   1.0000   1.0000   1.0000   1.0000
     0.0000   0.0000   0.0000   0.0000

          k = 0.1250 0.2500 0.2500 (  3643 PWs)   bands (ev):

    -6.7450  -2.2962  -2.2952  -0.4115   2.1700   3.8971   3.8977   5.0984
     6.6649   6.6677   8.0453   8.0475   8.2819   8.5180  11.2413  12.5482
    19.4783  19.7098  19.7099  20.8030

     occupation numbers 
     1.0000   1.0000   1.0000   1.0000   1.0000   1.0000   1.0000   1.0000
     1.0000   1.0000   1.0000   1.0000   1.0000   1.0000   1.0000   1.0000
     0.0000   0.0000   0.0000   0.0000

          k = 0.1250 0.2500 0.3750 (  3640 PWs)   bands (ev):

    -6.0296  -3.7827  -1.6950  -0.4044   1.7244   2.9289   4.8470   5.3453
     6.3428   7.1689   8.0150   8.0475   8.4347   9.1241  10.1748  11.8742
    19.9779  20.4524  20.7203  21.4022

     occupation numbers 
     1.0000   1.0000   1.0000   1.0000   1.0000   1.0000   1.0000   1.0000
     1.0000   1.0000   1.0000   1.0000   1.0000   1.0000   1.0000   1.0000
     0.0000   0.0000   0.0000   0.0000

          k = 0.1250 0.2500-0.5000 (  3628 PWs)   bands (ev):

    -5.0946  -4.9793  -1.0081  -0.9187   2.0360   2.1272   5.7742   5.8449
     5.9039   6.0002   8.2048   8.2778   9.0071   9.1700  10.5670  10.6820
    20.2849  20.3999  22.0499  22.1339

     occupation numbers 
     1.0000   1.0000   1.0000   1.0000   1.0000   1.0000   1.0000   1.0000
     1.0000   1.0000   1.0000   1.0000   1.0000   1.0000   1.0000   1.0000
     0.0000   0.0000   0.0000   0.0000

          k = 0.1250 0.3750 0.3750 (  3624 PWs)   bands (ev):

    -5.3233  -3.1216  -3.1207  -1.2269   1.8986   3.6654   3.6667   5.8135
     5.8789   7.2877   7.2918   9.1860   9.3147   9.5319   9.5424  11.7433
    20.5550  21.6348  21.6423  21.9068

     occupation numbers 
     1.0000   1.0000   1.0000   1.0000   1.0000   1.0000   1.0000   1.0000
     1.0000   1.0000   1.0000   1.0000   1.0000   1.0000   1.0000   1.0000
     0.0000   0.0000   0.0000   0.0000

          k = 0.1250 0.3750-0.5000 (  3618 PWs)   bands (ev):

    -4.4048  -4.2884  -2.2916  -2.1810   2.5802   2.6984   4.5930   4.7105
     6.4763   6.5662   8.1293   8.2855   9.5945   9.7047  10.8584  10.9696
    21.5332  21.6328  21.8540  22.0177

     occupation numbers 
     1.0000   1.0000   1.0000   1.0000   1.0000   1.0000   1.0000   1.0000
     1.0000   1.0000   1.0000   1.0000   1.0000   1.0000   1.0000   1.0000
     0.0000   0.0000   0.0000   0.0000

          k = 0.1250-0.5000-0.5000 (  3600 PWs)   bands (ev):

    -3.5203  -3.4004  -3.3981  -3.2794   3.4090   3.5110   3.5528   3.6436
     7.1802   7.3001   7.3495   7.4336  10.4479  10.6269  10.6615  10.7248
    21.6296  21.7518  21.7929  21.8950

     occupation numbers 
     1.0000   1.0000   1.0000   1.0000   1.0000   1.0000   1.0000   1.0000
     1.0000   1.0000   1.0000   1.0000   1.0000   1.0000   1.0000   1.0000
     0.0000   0.0000   0.0000   0.0000

          k = 0.2500 0.2500 0.2500 (  3635 PWs)   bands (ev):

    -6.3153  -1.9470  -1.9457  -1.9457   2.7115   2.7115   2.7127   6.8616
     6.8844   6.8844   7.0552   8.6408   8.6408   8.6474  11.8439  11.8439
    19.7716  19.7741  19.7741  21.5381

     occupation numbers 
     1.0000   1.0000   1.0000   1.0000   1.0000   1.0000   1.0000   1.0000
     1.0000   1.0000   1.0000   1.0000   1.0000   1.0000   1.0000   1.0000
     0.0000   0.0000   0.0000   0.0000

          k = 0.2500 0.2500 0.3750 (  3618 PWs)   bands (ev):

    -5.6054  -3.3879  -1.4524  -1.4518   1.6126   1.6127   3.4424   5.6575
     7.1640   7.1655   8.7949   8.8451   8.8475   9.2290  10.9498  11.5390
    20.2054  20.7414  20.7438  21.2049

     occupation numbers 
     1.0000   1.0000   1.0000   1.0000   1.0000   1.0000   1.0000   1.0000
     1.0000   1.0000   1.0000   1.0000   1.0000   1.0000   1.0000   1.0000
     0.0000   0.0000   0.0000   0.0000

          k = 0.2500 0.2500-0.5000 (  3656 PWs)   bands (ev):

    -4.6808  -4.5649  -1.1458  -1.1455   1.0939   1.0948   4.3801   4.4976
     7.2927   7.2935   8.8449   8.8500   9.9135  10.1410  10.3894  10.5012
    20.6484  20.7863  21.9688  21.9705

     occupation numbers 
     1.0000   1.0000   1.0000   1.0000   1.0000   1.0000   1.0000   1.0000
     1.0000   1.0000   1.0000   1.0000   1.0000   1.0000   1.0000   1.0000
     0.0000   0.0000   0.0000   0.0000

          k = 0.2500 0.3750 0.3750 (  3635 PWs)   bands (ev):

    -4.9072  -2.7586  -2.7580  -1.3970   0.8457   2.1567   2.1578   4.2818
     7.7620   8.6871   8.6908   9.5776   9.6795   9.6985  10.4859  11.4832
    20.8653  21.1622  21.1653  21.8845

     occupation numbers 
     1.0000   1.0000   1.0000   1.0000   1.0000   1.0000   1.0000   1.0000
     1.0000   1.0000   1.0000   1.0000   1.0000   1.0000   1.0000   1.0000
     0.0000   0.0000   0.0000   0.0000

          k = 0.2500 0.3750-0.5000 (  3634 PWs)   bands (ev):

    -4.0052  -3.8878  -2.0241  -1.9361   1.1235   1.2171   3.0296   3.1451
     8.2308   8.3146   9.5673   9.7261   9.8298   9.9325  10.7887  10.8924
    21.5589  21.6979  21.7419  21.8117

     occupation numbers 
     1.0000   1.0000   1.0000   1.0000   1.0000   1.0000   1.0000   1.0000
     1.0000   1.0000   1.0000   1.0000   1.0000   1.0000   1.0000   1.0000
     0.0000   0.0000   0.0000   0.0000

          k = 0.2500-0.5000-0.5000 (  3632 PWs)   bands (ev):

    -3.1551  -3.0352  -3.0313  -2.9138   1.8381   1.9397   1.9737   2.0695
     8.8555   8.9761   9.0525   9.1213  10.5214  10.7059  10.7397  10.7989
    21.8177  21.9392  21.9858  22.0855

     occupation numbers 
     1.0000   1.0000   1.0000   1.0000   1.0000   1.0000   1.0000   1.0000
     1.0000   1.0000   1.0000   1.0000   1.0000   1.0000   1.0000   1.0000
     0.0000   0.0000   0.0000   0.0000

          k = 0.3750 0.3750 0.3750 (  3638 PWs)   bands (ev):

    -4.2273  -2.2386  -2.2386  -2.2384   0.9099   0.9099   0.9100   2.8887
     9.5151   9.5151   9.5177   9.9854   9.9854  10.0035  11.0727  11.0727
    21.2995  21.2995  21.3055  22.1113

     occupation numbers 
     1.0000   1.0000   1.0000   1.0000   1.0000   1.0000   1.0000   1.0000
     1.0000   1.0000   1.0000   1.0000   1.0000   1.0000   1.0000   1.0000
     0.0000   0.0000   0.0000   0.0000

          k = 0.3750 0.3750-0.5000 (  3638 PWs)   bands (ev):

    -3.3676  -3.2478  -1.9086  -1.9055   0.3308   0.3331   1.6634   1.7783
     9.6552   9.6556  10.2359  10.2539  10.4169  10.6482  10.6994  10.7781
    21.6746  21.8371  21.9104  21.9266

     occupation numbers 
     1.0000   1.0000   1.0000   1.0000   1.0000   1.0000   1.0000   1.0000
     1.0000   1.0000   1.0000   1.0000   1.0000   1.0000   1.0000   1.0000
     0.0000   0.0000   0.0000   0.0000

          k = 0.3750-0.5000-0.5000 (  3628 PWs)   bands (ev):

    -2.6311  -2.5094  -2.5038  -2.3933   0.5726   0.6585   0.6858   0.7852
    10.1331  10.2489  10.3672  10.4113  10.6020  10.7946  10.8272  10.8755
    21.9868  22.0993  22.1281  22.2267

     occupation numbers 
     1.0000   1.0000   1.0000   1.0000   1.0000   1.0000   1.0000   1.0000
     1.0000   1.0000   1.0000   1.0000   1.0000   1.0000   1.0000   1.0000
     0.0000   0.0000   0.0000   0.0000

          k =-0.5000-0.5000-0.5000 (  3648 PWs)   bands (ev):

    -2.2973  -2.1655  -2.1655  -2.0725   0.0197   0.0651   0.0651   0.1932
    10.6062  10.6062  10.7252  10.8783  10.8783  10.8896  10.9081  10.9081
    22.0025  22.0025  22.0681  22.1686

     occupation numbers 
     1.0000   1.0000   1.0000   1.0000   1.0000   1.0000   1.0000   1.0000
     1.0000   1.0000   1.0000   1.0000   1.0000   1.0000   1.0000   1.0000
     0.0000   0.0000   0.0000   0.0000

          k =-0.1250 0.0000 0.1250 (  3659 PWs)   bands (ev):

    -7.7577  -1.0975  -1.0284   0.8804   1.0099   2.8678   2.9358   5.9252
     7.0168   7.0341   7.0883   7.1873   7.5130  12.1502  12.5522  13.5525
    18.5652  18.6660  18.7749  19.5141

     occupation numbers 
     1.0000   1.0000   1.0000   1.0000   1.0000   1.0000   1.0000   1.0000
     1.0000   1.0000   1.0000   1.0000   1.0000   1.0000   1.0000   1.0000
     0.0000   0.0000   0.0000   0.0000

          k =-0.1250 0.0000 0.2500 (  3651 PWs)   bands (ev):

    -7.3223  -2.8063  -0.7212   0.9473   1.3599   2.9680   4.9049   4.9709
     6.2043   6.6093   7.4021   7.4723   7.6932  10.8742  11.4146  12.9448
    18.4736  19.4376  19.5408  20.2350

     occupation numbers 
     1.0000   1.0000   1.0000   1.0000   1.0000   1.0000   1.0000   1.0000
     1.0000   1.0000   1.0000   1.0000   1.0000   1.0000   1.0000   1.0000
     0.0000   0.0000   0.0000   0.0000

          k =-0.1250 0.0000 0.3750 (  3622 PWs)   bands (ev):

    -6.6009  -4.3261  -0.2010   0.8532   1.8604   2.8668   4.4007   5.2865
     6.2757   6.7625   6.9765   8.1048   8.6772   9.5306  10.1709  11.7223
    18.5443  19.1048  21.2349  22.3962

     occupation numbers 
     1.0000   1.0000   1.0000   1.0000   1.0000   1.0000   1.0000   1.0000
     1.0000   1.0000   1.0000   1.0000   1.0000   1.0000   1.0000   1.0000
     0.0000   0.0000   0.0000   0.0000

          k =-0.2500 0.0000 0.2500 (  3623 PWs)   bands (ev):

    -6.8891  -2.4521  -2.3886   0.5989   1.7860   4.1333   4.5867   4.6229
     6.5101   6.5664   7.4809   7.6542   8.2226   9.5785  10.3481  12.9507
    19.4231  20.0394  20.1299  20.4075

     occupation numbers 
     1.0000   1.0000   1.0000   1.0000   1.0000   1.0000   1.0000   1.0000
     1.0000   1.0000   1.0000   1.0000   1.0000   1.0000   1.0000   1.0000
     0.0000   0.0000   0.0000   0.0000

          k =-0.2500 0.0000 0.3750 (  3645 PWs)   bands (ev):

    -6.1720  -3.9177  -1.8007  -0.1036   2.3863   3.9423   4.0997   5.5194
     5.9219   7.1650   7.6998   8.2786   8.3759   9.0231   9.1834  12.1562
    20.1304  20.4072  20.5151  22.2450

     occupation numbers 
     1.0000   1.0000   1.0000   1.0000   1.0000   1.0000   1.0000   1.0000
     1.0000   1.0000   1.0000   1.0000   1.0000   1.0000   1.0000   1.0000
     0.0000   0.0000   0.0000   0.0000

          k =-0.3750 0.0000 0.3750 (  3636 PWs)   bands (ev):

    -5.4631  -3.2791  -3.2195  -1.2495   3.0669   4.3852   4.9190   4.9576
     6.0499   6.1298   7.0461   7.9971   9.2648   9.3317   9.4983  11.9304
    20.4982  21.8082  22.1803  22.2936

     occupation numbers 
     1.0000   1.0000   1.0000   1.0000   1.0000   1.0000   1.0000   1.0000
     1.0000   1.0000   1.0000   1.0000   1.0000   1.0000   1.0000   1.0000
     0.0000   0.0000   0.0000   0.0000

          k = 0.1250-0.1250 0.1250 (  3653 PWs)   bands (ev):

    -7.6124  -1.0007  -0.9471  -0.8983   2.8573   2.8942   2.9487   6.1318
     6.1505   6.2014   7.5825   7.6509   7.6650  11.1753  12.9135  13.0984
    18.6084  18.7177  18.7964  20.0625

     occupation numbers 
     1.0000   1.0000   1.0000   1.0000   1.0000   1.0000   1.0000   1.0000
     1.0000   1.0000   1.0000   1.0000   1.0000   1.0000   1.0000   1.0000
     0.0000   0.0000   0.0000   0.0000

          k = 0.1250-0.1250 0.2500 (  3650 PWs)   bands (ev):

    -7.1776  -2.6766  -0.6712  -0.5870   2.7637   2.8232   4.6738   5.3308
     5.3987   6.9113   7.5477   7.6135   8.0669   9.8286  11.9593  12.6593
    18.7452  19.5107  19.6505  19.9418

     occupation numbers 
     1.0000   1.0000   1.0000   1.0000   1.0000   1.0000   1.0000   1.0000
     1.0000   1.0000   1.0000   1.0000   1.0000   1.0000   1.0000   1.0000
     0.0000   0.0000   0.0000   0.0000

          k =-0.2500 0.1250 0.1250 (  3650 PWs)   bands (ev):

    -7.1777  -2.6787  -0.6261  -0.6251   2.7790   2.7802   4.7147   5.3623
     5.3627   6.9188   7.5899   7.5996   8.0131   9.8190  11.8570  12.7912
    18.7238  19.6026  19.6076  19.8825

     occupation numbers 
     1.0000   1.0000   1.0000   1.0000   1.0000   1.0000   1.0000   1.0000
     1.0000   1.0000   1.0000   1.0000   1.0000   1.0000   1.0000   1.0000
     0.0000   0.0000   0.0000   0.0000

          k = 0.1250-0.1250 0.3750 (  3640 PWs)   bands (ev):

    -6.4576  -4.1892  -0.2457  -0.1348   2.3582   2.4335   5.0185   5.1311
     6.0558   7.1532   7.2391   8.3104   8.5067   8.7462  10.7593  11.5824
    18.9125  19.5761  21.2090  21.3566

     occupation numbers 
     1.0000   1.0000   1.0000   1.0000   1.0000   1.0000   1.0000   1.0000
     1.0000   1.0000   1.0000   1.0000   1.0000   1.0000   1.0000   1.0000
     0.0000   0.0000   0.0000   0.0000

          k =-0.3750 0.1250 0.1250 (  3640 PWs)   bands (ev):

    -6.4577  -4.1899  -0.1829  -0.1825   2.3661   2.3670   5.0996   5.1034
     6.1200   7.1868   7.1929   8.3124   8.4816   8.6822  10.6781  11.7018
    18.9003  19.5349  21.3001  21.3003

     occupation numbers 
     1.0000   1.0000   1.0000   1.0000   1.0000   1.0000   1.0000   1.0000
     1.0000   1.0000   1.0000   1.0000   1.0000   1.0000   1.0000   1.0000
     0.0000   0.0000   0.0000   0.0000

          k = 0.1250-0.1250-0.5000 (  3634 PWs)   bands (ev):

    -5.5142  -5.3994   0.0006   0.1386   2.0461   2.1488   5.0195   5.1618
     6.9153   7.0143   7.1762   7.3103   9.5937   9.7051   9.9905  10.0945
    19.1861  19.2260  22.8402  23.0951

     occupation numbers 
     1.0000   1.0000   1.0000   1.0000   1.0000   1.0000   1.0000   1.0000
     1.0000   1.0000   1.0000   1.0000   1.0000   1.0000   1.0000   1.0000
     0.0000   0.0000   0.0000   0.0000

          k = 0.2500-0.1250 0.2500 (  3643 PWs)   bands (ev):

    -6.7452  -2.2977  -2.2958  -0.4351   2.2648   3.9249   3.9274   5.0138
     6.5540   6.5575   8.1323   8.1335   8.2902   8.4433  11.3485  12.5202
    19.4643  19.7658  19.7929  20.8683

     occupation numbers 
     1.0000   1.0000   1.0000   1.0000   1.0000   1.0000   1.0000   1.0000
     1.0000   1.0000   1.0000   1.0000   1.0000   1.0000   1.0000   1.0000
     0.0000   0.0000   0.0000   0.0000

          k =-0.2500 0.1250 0.2500 (  3643 PWs)   bands (ev):

    -6.7453  -2.3325  -2.2657  -0.4107   2.1919   3.9341   3.9870   5.0161
     6.5548   6.6092   8.0145   8.1150   8.3488   8.4325  11.2469  12.6614
    19.5159  19.7121  19.8233  20.6986

     occupation numbers 
     1.0000   1.0000   1.0000   1.0000   1.0000   1.0000   1.0000   1.0000
     1.0000   1.0000   1.0000   1.0000   1.0000   1.0000   1.0000   1.0000
     0.0000   0.0000   0.0000   0.0000

          k = 0.2500-0.1250 0.3750 (  3640 PWs)   bands (ev):

    -6.0297  -3.7830  -1.6965  -0.4367   1.8208   2.9444   4.8667   5.2642
     6.2616   7.1039   7.9399   8.1182   8.4514   9.1832  10.2615  11.8484
    20.0254  20.4682  20.7537  21.4988

     occupation numbers 
     1.0000   1.0000   1.0000   1.0000   1.0000   1.0000   1.0000   1.0000
     1.0000   1.0000   1.0000   1.0000   1.0000   1.0000   1.0000   1.0000
     0.0000   0.0000   0.0000   0.0000

          k =-0.2500 0.1250 0.3750 (  3640 PWs)   bands (ev):

    -6.0298  -3.7836  -1.7063  -0.3982   1.7290   3.0110   4.8728   5.2631
     6.2873   7.0944   7.9911   8.0594   8.5161   9.0805  10.1783  11.9666
    20.0476  20.5118  20.6888  21.4565

     occupation numbers 
     1.0000   1.0000   1.0000   1.0000   1.0000   1.0000   1.0000   1.0000
     1.0000   1.0000   1.0000   1.0000   1.0000   1.0000   1.0000   1.0000
     0.0000   0.0000   0.0000   0.0000

          k =-0.3750 0.2500 0.1250 (  3640 PWs)   bands (ev):

    -6.0298  -3.7850  -1.6974  -0.4005   1.7277   2.9512   4.9328   5.2823
     6.3358   7.0908   7.9473   8.0286   8.5046   9.0869  10.1756  11.9847
    20.0077  20.5149  20.6544  21.4819

     occupation numbers 
     1.0000   1.0000   1.0000   1.0000   1.0000   1.0000   1.0000   1.0000
     1.0000   1.0000   1.0000   1.0000   1.0000   1.0000   1.0000   1.0000
     0.0000   0.0000   0.0000   0.0000

          k = 0.2500-0.1250-0.5000 (  3628 PWs)   bands (ev):

    -5.0944  -4.9792  -1.0362  -0.9085   2.0665   2.1775   5.6883   5.8016
     5.8926   5.9806   8.2134   8.3198   9.0701   9.1729  10.5539  10.6746
    20.3603  20.3997  22.0498  22.2582

     occupation numbers 
     1.0000   1.0000   1.0000   1.0000   1.0000   1.0000   1.0000   1.0000
     1.0000   1.0000   1.0000   1.0000   1.0000   1.0000   1.0000   1.0000
     0.0000   0.0000   0.0000   0.0000

          k = 0.3750-0.1250 0.3750 (  3624 PWs)   bands (ev):

    -5.3230  -3.1223  -3.1209  -1.2441   1.9728   3.6733   3.6759   5.7464
     5.8129   7.2487   7.2589   9.2707   9.3312   9.5649   9.5680  11.7154
    20.5572  21.7552  21.7626  21.9799

     occupation numbers 
     1.0000   1.0000   1.0000   1.0000   1.0000   1.0000   1.0000   1.0000
     1.0000   1.0000   1.0000   1.0000   1.0000   1.0000   1.0000   1.0000
     0.0000   0.0000   0.0000   0.0000

          k =-0.3750 0.1250 0.3750 (  3624 PWs)   bands (ev):

    -5.3231  -3.1552  -3.0924  -1.2222   1.8944   3.6819   3.7385   5.7346
     5.8215   7.2613   7.3393   9.1834   9.3540   9.4182   9.5715  11.8366
    20.6111  21.6699  21.7613  21.8153

     occupation numbers 
     1.0000   1.0000   1.0000   1.0000   1.0000   1.0000   1.0000   1.0000
     1.0000   1.0000   1.0000   1.0000   1.0000   1.0000   1.0000   1.0000
     0.0000   0.0000   0.0000   0.0000

          k = 0.3750-0.1250-0.5000 (  3618 PWs)   bands (ev):

    -4.4039  -4.2883  -2.3003  -2.1795   2.6142   2.7278   4.5598   4.6931
     6.4001   6.5573   8.1870   8.2886   9.6103   9.7212  10.8470  10.9665
    21.5263  21.6974  21.9989  22.0204

     occupation numbers 
     1.0000   1.0000   1.0000   1.0000   1.0000   1.0000   1.0000   1.0000
     1.0000   1.0000   1.0000   1.0000   1.0000   1.0000   1.0000   1.0000
     0.0000   0.0000   0.0000   0.0000

          k = 0.2500-0.2500 0.2500 (  3635 PWs)   bands (ev):

    -6.3155  -2.0070  -1.9470  -1.8963   2.7251   2.7307   2.7963   6.6964
     6.7945   6.8544   6.9982   8.6491   8.7204   8.7307  11.8034  11.9686
    19.7217  19.8397  19.9132  21.4187

     occupation numbers 
     1.0000   1.0000   1.0000   1.0000   1.0000   1.0000   1.0000   1.0000
     1.0000   1.0000   1.0000   1.0000   1.0000   1.0000   1.0000   1.0000
     0.0000   0.0000   0.0000   0.0000

          k = 0.2500-0.2500 0.3750 (  3618 PWs)   bands (ev):

    -5.6053  -3.3888  -1.5158  -1.4098   1.6113   1.7025   3.4537   5.5965
     6.9908   7.1576   8.6738   8.8830   8.9484   9.3223  11.0045  11.5469
    20.2744  20.7256  20.8772  21.2333

     occupation numbers 
     1.0000   1.0000   1.0000   1.0000   1.0000   1.0000   1.0000   1.0000
     1.0000   1.0000   1.0000   1.0000   1.0000   1.0000   1.0000   1.0000
     0.0000   0.0000   0.0000   0.0000

          k =-0.3750 0.2500 0.2500 (  3618 PWs)   bands (ev):

    -5.6053  -3.3928  -1.4535  -1.4521   1.6202   1.6219   3.5119   5.5910
     7.1100   7.1104   8.6647   8.8894   8.9310   9.2585  10.9095  11.6634
    20.2247  20.8124  20.8236  21.1397

     occupation numbers 
     1.0000   1.0000   1.0000   1.0000   1.0000   1.0000   1.0000   1.0000
     1.0000   1.0000   1.0000   1.0000   1.0000   1.0000   1.0000   1.0000
     0.0000   0.0000   0.0000   0.0000

          k = 0.2500-0.2500-0.5000 (  3656 PWs)   bands (ev):

    -4.6800  -4.5647  -1.2300  -1.0934   1.0782   1.1988   4.3460   4.4824
     7.1227   7.3178   8.8353   8.9527  10.0460  10.1378  10.3675  10.4387
    20.7730  20.7800  21.9483  22.2240

     occupation numbers 
     1.0000   1.0000   1.0000   1.0000   1.0000   1.0000   1.0000   1.0000
     1.0000   1.0000   1.0000   1.0000   1.0000   1.0000   1.0000   1.0000
     0.0000   0.0000   0.0000   0.0000

          k = 0.3750-0.2500 0.3750 (  3635 PWs)   bands (ev):

    -4.9061  -2.7611  -2.7584  -1.4283   0.9317   2.1611   2.1628   4.2280
     7.6674   8.5972   8.6183   9.6156   9.7754   9.7811  10.5715  11.4350
    20.8610  21.2705  21.2940  22.0191

     occupation numbers 
     1.0000   1.0000   1.0000   1.0000   1.0000   1.0000   1.0000   1.0000
     1.0000   1.0000   1.0000   1.0000   1.0000   1.0000   1.0000   1.0000
     0.0000   0.0000   0.0000   0.0000

          k =-0.3750 0.2500 0.3750 (  3635 PWs)   bands (ev):

    -4.9061  -2.8007  -2.7264  -1.3951   0.8471   2.1598   2.2254   4.2242
     7.6733   8.6426   8.7071   9.5728   9.6838   9.7571  10.4698  11.5621
    20.9209  21.1816  21.2947  21.8061

     occupation numbers 
     1.0000   1.0000   1.0000   1.0000   1.0000   1.0000   1.0000   1.0000
     1.0000   1.0000   1.0000   1.0000   1.0000   1.0000   1.0000   1.0000
     0.0000   0.0000   0.0000   0.0000

          k = 0.3750-0.2500-0.5000 (  3634 PWs)   bands (ev):

    -4.0023  -3.8878  -2.0531  -1.9263   1.1472   1.2639   2.9964   3.1275
     8.1198   8.3051   9.6182   9.7486   9.8667   9.9691  10.7665  10.8867
    21.6800  21.7331  21.7618  21.9462

     occupation numbers 
     1.0000   1.0000   1.0000   1.0000   1.0000   1.0000   1.0000   1.0000
     1.0000   1.0000   1.0000   1.0000   1.0000   1.0000   1.0000   1.0000
     0.0000   0.0000   0.0000   0.0000

          k = 0.3750-0.3750 0.3750 (  3638 PWs)   bands (ev):

    -4.2239  -2.3194  -2.2393  -2.1769   0.8908   0.9130   0.9988   2.8359
     9.3028   9.4005   9.5232  10.0329  10.1143  10.1150  11.0157  11.1682
    21.2704  21.3961  21.4605  22.0107

     occupation numbers 
     1.0000   1.0000   1.0000   1.0000   1.0000   1.0000   1.0000   1.0000
     1.0000   1.0000   1.0000   1.0000   1.0000   1.0000   1.0000   1.0000
     0.0000   0.0000   0.0000   0.0000

          k = 0.3750-0.3750-0.5000 (  3638 PWs)   bands (ev):

    -3.3589  -3.2490  -1.9891  -1.8558   0.3113   0.4313   1.6332   1.7545
     9.4667   9.6874  10.2170  10.3782  10.5566  10.6146  10.6913  10.7335
    21.8347  21.8514  21.8992  22.1871

     occupation numbers 
     1.0000   1.0000   1.0000   1.0000   1.0000   1.0000   1.0000   1.0000
     1.0000   1.0000   1.0000   1.0000   1.0000   1.0000   1.0000   1.0000
     0.0000   0.0000   0.0000   0.0000

     the Fermi energy is    16.2938 ev

!    total energy              =     -99.34783557 Ry
     Harris-Foulkes estimate   =     -99.34783555 Ry
     estimated scf accuracy    <       0.00000005 Ry

     The total energy is the sum of the following terms:

     one-electron contribution =      33.46869101 Ry
     hartree contribution      =       7.70457203 Ry
     xc contribution           =     -37.63069578 Ry
     ewald contribution        =    -102.89040284 Ry
     smearing contrib. (-TS)   =      -0.00000000 Ry

     convergence has been achieved in   6 iterations

     Writing output data file c-3.546.save/

     init_run     :      1.73s CPU      1.82s WALL (       1 calls)
     electrons    :     19.94s CPU     20.66s WALL (       1 calls)

     Called by init_run:
     wfcinit      :      1.49s CPU      1.58s WALL (       1 calls)
     wfcinit:atom :      0.01s CPU      0.01s WALL (      65 calls)
     wfcinit:wfcr :      1.40s CPU      1.49s WALL (      65 calls)
     potinit      :      0.04s CPU      0.04s WALL (       1 calls)
     hinit0       :      0.08s CPU      0.08s WALL (       1 calls)

     Called by electrons:
     c_bands      :     17.55s CPU     18.15s WALL (       6 calls)
     sum_band     :      2.15s CPU      2.27s WALL (       6 calls)
     v_of_rho     :      0.13s CPU      0.13s WALL (       7 calls)
     v_h          :      0.01s CPU      0.01s WALL (       7 calls)
     v_xc         :      0.12s CPU      0.12s WALL (       7 calls)
     newd         :      0.11s CPU      0.12s WALL (       7 calls)
     mix_rho      :      0.01s CPU      0.01s WALL (       6 calls)

     Called by c_bands:
     init_us_2    :      0.20s CPU      0.21s WALL (     845 calls)
     cegterg      :     16.92s CPU     17.51s WALL (     390 calls)

     Called by sum_band:
     sum_band:bec :      0.01s CPU      0.01s WALL (     390 calls)
     addusdens    :      0.06s CPU      0.06s WALL (       6 calls)

     Called by *egterg:
     h_psi        :     11.26s CPU     11.88s WALL (    1647 calls)
     s_psi        :      1.30s CPU      1.32s WALL (    1647 calls)
     g_psi        :      0.07s CPU      0.07s WALL (    1192 calls)
     cdiaghg      :      1.30s CPU      1.32s WALL (    1582 calls)
     cegterg:over :      1.99s CPU      2.01s WALL (    1192 calls)
     cegterg:upda :      0.78s CPU      0.78s WALL (    1192 calls)
     cegterg:last :      0.38s CPU      0.38s WALL (     390 calls)

     Called by h_psi:
     h_psi:pot    :     11.22s CPU     11.85s WALL (    1647 calls)
     h_psi:calbec :      1.84s CPU      1.96s WALL (    1647 calls)
     vloc_psi     :      8.07s CPU      8.53s WALL (    1647 calls)
     add_vuspsi   :      1.31s CPU      1.35s WALL (    1647 calls)

     General routines
     calbec       :      2.43s CPU      2.59s WALL (    2037 calls)
     fft          :      0.09s CPU      0.09s WALL (      89 calls)
     ffts         :      0.00s CPU      0.00s WALL (      13 calls)
     fftw         :      8.61s CPU      9.10s WALL (   54244 calls)
     interpolate  :      0.01s CPU      0.01s WALL (       7 calls)

     Parallel routines
     fft_scatt_xy :      0.71s CPU      0.74s WALL (   54346 calls)
     fft_scatt_yz :      4.17s CPU      4.41s WALL (   54346 calls)

     PWSCF        :     22.06s CPU     22.96s WALL


   This run was terminated on:  19: 7:59  26May2022            

=------------------------------------------------------------------------------=
   JOB DONE.
=------------------------------------------------------------------------------=
