
     Program PWSCF v.6.4.1 starts on 26May2022 at 19: 5:38 

     This program is part of the open-source Quantum ESPRESSO suite
     for quantum simulation of materials; please cite
         "P. Giannozzi et al., J. Phys.:Condens. Matter 21 395502 (2009);
         "P. Giannozzi et al., J. Phys.:Condens. Matter 29 465901 (2017);
          URL http://www.quantum-espresso.org", 
     in publications or presentations arising from this work. More details at
     http://www.quantum-espresso.org/quote

     Parallel version (MPI), running on     6 processors

     MPI processes distributed on     1 nodes
     R & G space division:  proc/nbgrp/npool/nimage =       6
     Reading input from c-3.446.in

     Current dimensions of program PWSCF are:
     Max number of different atomic species (ntypx) = 10
     Max number of k-points (npk) =  40000
     Max angular momentum in pseudopotentials (lmaxx) =  3

     Subspace diagonalization in iterative solution of the eigenvalue problem:
     a serial algorithm will be used

     Message from routine setup:
     DEPRECATED: symmetry with ibrav=0, use correct ibrav instead

     Parallelization info
     --------------------
     sticks:   dense  smooth     PW     G-vecs:    dense   smooth      PW
     Min         315     180     54                10300     4456     730
     Max         316     181     55                10303     4459     733
     Sum        1893    1085    325                61805    26745    4385



     bravais-lattice index     =            0
     lattice parameter (alat)  =       6.5120  a.u.
     unit-cell volume          =     276.1483 (a.u.)^3
     number of atoms/cell      =            8
     number of atomic types    =            1
     number of electrons       =        32.00
     number of Kohn-Sham states=           20
     kinetic-energy cutoff     =      80.0000  Ry
     charge density cutoff     =     560.0000  Ry
     convergence threshold     =      1.0E-06
     mixing beta               =       0.7000
     number of iterations used =            8  plain     mixing
     Exchange-correlation      = PBE ( 1  4  3  4 0 0)

     celldm(1)=   6.511996  celldm(2)=   0.000000  celldm(3)=   0.000000
     celldm(4)=   0.000000  celldm(5)=   0.000000  celldm(6)=   0.000000

     crystal axes: (cart. coord. in units of alat)
               a(1) = (   1.000000   0.000000   0.000000 )  
               a(2) = (   0.000000   1.000000   0.000000 )  
               a(3) = (   0.000000   0.000000   1.000000 )  

     reciprocal axes: (cart. coord. in units 2 pi/alat)
               b(1) = (  1.000000  0.000000  0.000000 )  
               b(2) = (  0.000000  1.000000  0.000000 )  
               b(3) = (  0.000000  0.000000  1.000000 )  


     PseudoPot. # 1 for C  read from file:
     /home/cristian/Escritorio/Proyecto_Grafeno/pseudopotenciales/C.pbe-n-rrkjus_psl.1.0.0.UPF
     MD5 check sum: 1fdd950c42eb37d8afe3dd2f8d12311e
     Pseudo is Ultrasoft + core correction, Zval =  4.0
     Generated using "atomic" code by A. Dal Corso v.6.3MaX
     Using radial grid of 1073 points,  4 beta functions with: 
                l(1) =   0
                l(2) =   0
                l(3) =   1
                l(4) =   1
     Q(r) pseudized with 0 coefficients 


     atomic species   valence    mass     pseudopotential
        C              4.00    12.01100     C ( 1.00)

      6 Sym. Ops. (no inversion) found


                                    s                        frac. trans.

      isym =  1     identity                                     

 cryst.   s( 1) = (     1          0          0      )
                  (     0          1          0      )
                  (     0          0          1      )

 cart.    s( 1) = (  1.0000000  0.0000000  0.0000000 )
                  (  0.0000000  1.0000000  0.0000000 )
                  (  0.0000000  0.0000000  1.0000000 )


      isym =  2     120 deg rotation - cart. axis [-1,-1,-1]     

 cryst.   s( 2) = (     0          0          1      )
                  (     1          0          0      )
                  (     0          1          0      )

 cart.    s( 2) = (  0.0000000  1.0000000  0.0000000 )
                  (  0.0000000  0.0000000  1.0000000 )
                  (  1.0000000  0.0000000  0.0000000 )


      isym =  3     120 deg rotation - cart. axis [1,1,1]        

 cryst.   s( 3) = (     0          1          0      )
                  (     0          0          1      )
                  (     1          0          0      )

 cart.    s( 3) = (  0.0000000  0.0000000  1.0000000 )
                  (  1.0000000  0.0000000  0.0000000 )
                  (  0.0000000  1.0000000  0.0000000 )


      isym =  4     inv. 180 deg rotation - cart. axis [1,-1,0]  

 cryst.   s( 4) = (     0          1          0      )
                  (     1          0          0      )
                  (     0          0          1      )

 cart.    s( 4) = (  0.0000000  1.0000000  0.0000000 )
                  (  1.0000000  0.0000000  0.0000000 )
                  (  0.0000000  0.0000000  1.0000000 )


      isym =  5     inv. 180 deg rotation - cart. axis [-1,0,1]  

 cryst.   s( 5) = (     0          0          1      )
                  (     0          1          0      )
                  (     1          0          0      )

 cart.    s( 5) = (  0.0000000  0.0000000  1.0000000 )
                  (  0.0000000  1.0000000  0.0000000 )
                  (  1.0000000  0.0000000  0.0000000 )


      isym =  6     inv. 180 deg rotation - cart. axis [0,1,-1]  

 cryst.   s( 6) = (     1          0          0      )
                  (     0          0          1      )
                  (     0          1          0      )

 cart.    s( 6) = (  1.0000000  0.0000000  0.0000000 )
                  (  0.0000000  0.0000000  1.0000000 )
                  (  0.0000000  1.0000000  0.0000000 )


   Cartesian axes

     site n.     atom                  positions (alat units)
         1           C   tau(   1) = (   0.0000000   0.0000000   0.0000000  )
         2           C   tau(   2) = (   0.5174115   0.5174115   0.0000000  )
         3           C   tau(   3) = (   0.0000000   0.5174115   0.5174115  )
         4           C   tau(   4) = (   0.5174115   0.0000000   0.5174115  )
         5           C   tau(   5) = (   0.2587057   0.2587057   0.2587057  )
         6           C   tau(   6) = (   0.7761172   0.7761172   0.2587057  )
         7           C   tau(   7) = (   0.2587057   0.7761172   0.7761172  )
         8           C   tau(   8) = (   0.7761172   0.2587057   0.7761172  )

   Crystallographic axes

     site n.     atom                  positions (cryst. coord.)
         1           C   tau(   1) = (  0.0000000  0.0000000  0.0000000  )
         2           C   tau(   2) = (  0.5174115  0.5174115  0.0000000  )
         3           C   tau(   3) = (  0.0000000  0.5174115  0.5174115  )
         4           C   tau(   4) = (  0.5174115  0.0000000  0.5174115  )
         5           C   tau(   5) = (  0.2587057  0.2587057  0.2587057  )
         6           C   tau(   6) = (  0.7761172  0.7761172  0.2587057  )
         7           C   tau(   7) = (  0.2587057  0.7761172  0.7761172  )
         8           C   tau(   8) = (  0.7761172  0.2587057  0.7761172  )

     number of k points=    65  Marzari-Vanderbilt smearing, width (Ry)=  0.0200
                       cart. coord. in units 2pi/alat
        k(    1) = (   0.0000000   0.0000000   0.0000000), wk =   0.0039062
        k(    2) = (   0.0000000   0.0000000   0.1250000), wk =   0.0234375
        k(    3) = (   0.0000000   0.0000000   0.2500000), wk =   0.0234375
        k(    4) = (   0.0000000   0.0000000   0.3750000), wk =   0.0234375
        k(    5) = (   0.0000000   0.0000000  -0.5000000), wk =   0.0117188
        k(    6) = (   0.0000000   0.1250000   0.1250000), wk =   0.0234375
        k(    7) = (   0.0000000   0.1250000   0.2500000), wk =   0.0468750
        k(    8) = (   0.0000000   0.1250000   0.3750000), wk =   0.0468750
        k(    9) = (   0.0000000   0.1250000  -0.5000000), wk =   0.0468750
        k(   10) = (   0.0000000   0.2500000   0.2500000), wk =   0.0234375
        k(   11) = (   0.0000000   0.2500000   0.3750000), wk =   0.0468750
        k(   12) = (   0.0000000   0.2500000  -0.5000000), wk =   0.0468750
        k(   13) = (   0.0000000   0.3750000   0.3750000), wk =   0.0234375
        k(   14) = (   0.0000000   0.3750000  -0.5000000), wk =   0.0468750
        k(   15) = (   0.0000000  -0.5000000  -0.5000000), wk =   0.0117188
        k(   16) = (   0.1250000   0.1250000   0.1250000), wk =   0.0078125
        k(   17) = (   0.1250000   0.1250000   0.2500000), wk =   0.0234375
        k(   18) = (   0.1250000   0.1250000   0.3750000), wk =   0.0234375
        k(   19) = (   0.1250000   0.1250000  -0.5000000), wk =   0.0234375
        k(   20) = (   0.1250000   0.2500000   0.2500000), wk =   0.0234375
        k(   21) = (   0.1250000   0.2500000   0.3750000), wk =   0.0468750
        k(   22) = (   0.1250000   0.2500000  -0.5000000), wk =   0.0468750
        k(   23) = (   0.1250000   0.3750000   0.3750000), wk =   0.0234375
        k(   24) = (   0.1250000   0.3750000  -0.5000000), wk =   0.0468750
        k(   25) = (   0.1250000  -0.5000000  -0.5000000), wk =   0.0234375
        k(   26) = (   0.2500000   0.2500000   0.2500000), wk =   0.0078125
        k(   27) = (   0.2500000   0.2500000   0.3750000), wk =   0.0234375
        k(   28) = (   0.2500000   0.2500000  -0.5000000), wk =   0.0234375
        k(   29) = (   0.2500000   0.3750000   0.3750000), wk =   0.0234375
        k(   30) = (   0.2500000   0.3750000  -0.5000000), wk =   0.0468750
        k(   31) = (   0.2500000  -0.5000000  -0.5000000), wk =   0.0234375
        k(   32) = (   0.3750000   0.3750000   0.3750000), wk =   0.0078125
        k(   33) = (   0.3750000   0.3750000  -0.5000000), wk =   0.0234375
        k(   34) = (   0.3750000  -0.5000000  -0.5000000), wk =   0.0234375
        k(   35) = (  -0.5000000  -0.5000000  -0.5000000), wk =   0.0039062
        k(   36) = (  -0.1250000   0.0000000   0.1250000), wk =   0.0234375
        k(   37) = (  -0.1250000   0.0000000   0.2500000), wk =   0.0468750
        k(   38) = (  -0.1250000   0.0000000   0.3750000), wk =   0.0468750
        k(   39) = (  -0.2500000   0.0000000   0.2500000), wk =   0.0234375
        k(   40) = (  -0.2500000   0.0000000   0.3750000), wk =   0.0468750
        k(   41) = (  -0.3750000   0.0000000   0.3750000), wk =   0.0234375
        k(   42) = (   0.1250000  -0.1250000   0.1250000), wk =   0.0234375
        k(   43) = (   0.1250000  -0.1250000   0.2500000), wk =   0.0468750
        k(   44) = (  -0.2500000   0.1250000   0.1250000), wk =   0.0234375
        k(   45) = (   0.1250000  -0.1250000   0.3750000), wk =   0.0468750
        k(   46) = (  -0.3750000   0.1250000   0.1250000), wk =   0.0234375
        k(   47) = (   0.1250000  -0.1250000  -0.5000000), wk =   0.0234375
        k(   48) = (   0.2500000  -0.1250000   0.2500000), wk =   0.0234375
        k(   49) = (  -0.2500000   0.1250000   0.2500000), wk =   0.0468750
        k(   50) = (   0.2500000  -0.1250000   0.3750000), wk =   0.0468750
        k(   51) = (  -0.2500000   0.1250000   0.3750000), wk =   0.0468750
        k(   52) = (  -0.3750000   0.2500000   0.1250000), wk =   0.0468750
        k(   53) = (   0.2500000  -0.1250000  -0.5000000), wk =   0.0468750
        k(   54) = (   0.3750000  -0.1250000   0.3750000), wk =   0.0234375
        k(   55) = (  -0.3750000   0.1250000   0.3750000), wk =   0.0468750
        k(   56) = (   0.3750000  -0.1250000  -0.5000000), wk =   0.0468750
        k(   57) = (   0.2500000  -0.2500000   0.2500000), wk =   0.0234375
        k(   58) = (   0.2500000  -0.2500000   0.3750000), wk =   0.0468750
        k(   59) = (  -0.3750000   0.2500000   0.2500000), wk =   0.0234375
        k(   60) = (   0.2500000  -0.2500000  -0.5000000), wk =   0.0234375
        k(   61) = (   0.3750000  -0.2500000   0.3750000), wk =   0.0234375
        k(   62) = (  -0.3750000   0.2500000   0.3750000), wk =   0.0468750
        k(   63) = (   0.3750000  -0.2500000  -0.5000000), wk =   0.0468750
        k(   64) = (   0.3750000  -0.3750000   0.3750000), wk =   0.0234375
        k(   65) = (   0.3750000  -0.3750000  -0.5000000), wk =   0.0234375

                       cryst. coord.
        k(    1) = (   0.0000000   0.0000000   0.0000000), wk =   0.0039062
        k(    2) = (   0.0000000   0.0000000   0.1250000), wk =   0.0234375
        k(    3) = (   0.0000000   0.0000000   0.2500000), wk =   0.0234375
        k(    4) = (   0.0000000   0.0000000   0.3750000), wk =   0.0234375
        k(    5) = (   0.0000000   0.0000000  -0.5000000), wk =   0.0117188
        k(    6) = (   0.0000000   0.1250000   0.1250000), wk =   0.0234375
        k(    7) = (   0.0000000   0.1250000   0.2500000), wk =   0.0468750
        k(    8) = (   0.0000000   0.1250000   0.3750000), wk =   0.0468750
        k(    9) = (   0.0000000   0.1250000  -0.5000000), wk =   0.0468750
        k(   10) = (   0.0000000   0.2500000   0.2500000), wk =   0.0234375
        k(   11) = (   0.0000000   0.2500000   0.3750000), wk =   0.0468750
        k(   12) = (   0.0000000   0.2500000  -0.5000000), wk =   0.0468750
        k(   13) = (   0.0000000   0.3750000   0.3750000), wk =   0.0234375
        k(   14) = (   0.0000000   0.3750000  -0.5000000), wk =   0.0468750
        k(   15) = (   0.0000000  -0.5000000  -0.5000000), wk =   0.0117188
        k(   16) = (   0.1250000   0.1250000   0.1250000), wk =   0.0078125
        k(   17) = (   0.1250000   0.1250000   0.2500000), wk =   0.0234375
        k(   18) = (   0.1250000   0.1250000   0.3750000), wk =   0.0234375
        k(   19) = (   0.1250000   0.1250000  -0.5000000), wk =   0.0234375
        k(   20) = (   0.1250000   0.2500000   0.2500000), wk =   0.0234375
        k(   21) = (   0.1250000   0.2500000   0.3750000), wk =   0.0468750
        k(   22) = (   0.1250000   0.2500000  -0.5000000), wk =   0.0468750
        k(   23) = (   0.1250000   0.3750000   0.3750000), wk =   0.0234375
        k(   24) = (   0.1250000   0.3750000  -0.5000000), wk =   0.0468750
        k(   25) = (   0.1250000  -0.5000000  -0.5000000), wk =   0.0234375
        k(   26) = (   0.2500000   0.2500000   0.2500000), wk =   0.0078125
        k(   27) = (   0.2500000   0.2500000   0.3750000), wk =   0.0234375
        k(   28) = (   0.2500000   0.2500000  -0.5000000), wk =   0.0234375
        k(   29) = (   0.2500000   0.3750000   0.3750000), wk =   0.0234375
        k(   30) = (   0.2500000   0.3750000  -0.5000000), wk =   0.0468750
        k(   31) = (   0.2500000  -0.5000000  -0.5000000), wk =   0.0234375
        k(   32) = (   0.3750000   0.3750000   0.3750000), wk =   0.0078125
        k(   33) = (   0.3750000   0.3750000  -0.5000000), wk =   0.0234375
        k(   34) = (   0.3750000  -0.5000000  -0.5000000), wk =   0.0234375
        k(   35) = (  -0.5000000  -0.5000000  -0.5000000), wk =   0.0039062
        k(   36) = (  -0.1250000   0.0000000   0.1250000), wk =   0.0234375
        k(   37) = (  -0.1250000   0.0000000   0.2500000), wk =   0.0468750
        k(   38) = (  -0.1250000   0.0000000   0.3750000), wk =   0.0468750
        k(   39) = (  -0.2500000   0.0000000   0.2500000), wk =   0.0234375
        k(   40) = (  -0.2500000   0.0000000   0.3750000), wk =   0.0468750
        k(   41) = (  -0.3750000   0.0000000   0.3750000), wk =   0.0234375
        k(   42) = (   0.1250000  -0.1250000   0.1250000), wk =   0.0234375
        k(   43) = (   0.1250000  -0.1250000   0.2500000), wk =   0.0468750
        k(   44) = (  -0.2500000   0.1250000   0.1250000), wk =   0.0234375
        k(   45) = (   0.1250000  -0.1250000   0.3750000), wk =   0.0468750
        k(   46) = (  -0.3750000   0.1250000   0.1250000), wk =   0.0234375
        k(   47) = (   0.1250000  -0.1250000  -0.5000000), wk =   0.0234375
        k(   48) = (   0.2500000  -0.1250000   0.2500000), wk =   0.0234375
        k(   49) = (  -0.2500000   0.1250000   0.2500000), wk =   0.0468750
        k(   50) = (   0.2500000  -0.1250000   0.3750000), wk =   0.0468750
        k(   51) = (  -0.2500000   0.1250000   0.3750000), wk =   0.0468750
        k(   52) = (  -0.3750000   0.2500000   0.1250000), wk =   0.0468750
        k(   53) = (   0.2500000  -0.1250000  -0.5000000), wk =   0.0468750
        k(   54) = (   0.3750000  -0.1250000   0.3750000), wk =   0.0234375
        k(   55) = (  -0.3750000   0.1250000   0.3750000), wk =   0.0468750
        k(   56) = (   0.3750000  -0.1250000  -0.5000000), wk =   0.0468750
        k(   57) = (   0.2500000  -0.2500000   0.2500000), wk =   0.0234375
        k(   58) = (   0.2500000  -0.2500000   0.3750000), wk =   0.0468750
        k(   59) = (  -0.3750000   0.2500000   0.2500000), wk =   0.0234375
        k(   60) = (   0.2500000  -0.2500000  -0.5000000), wk =   0.0234375
        k(   61) = (   0.3750000  -0.2500000   0.3750000), wk =   0.0234375
        k(   62) = (  -0.3750000   0.2500000   0.3750000), wk =   0.0468750
        k(   63) = (   0.3750000  -0.2500000  -0.5000000), wk =   0.0468750
        k(   64) = (   0.3750000  -0.3750000   0.3750000), wk =   0.0234375
        k(   65) = (   0.3750000  -0.3750000  -0.5000000), wk =   0.0234375

     Dense  grid:    61805 G-vectors     FFT dimensions: (  50,  50,  50)

     Smooth grid:    26745 G-vectors     FFT dimensions: (  40,  40,  40)

     Dynamical RAM for                 wfc:       0.17 MB

     Dynamical RAM for     wfc (w. buffer):      11.20 MB

     Dynamical RAM for           str. fact:       0.16 MB

     Dynamical RAM for           local pot:       0.00 MB

     Dynamical RAM for          nlocal pot:       0.54 MB

     Dynamical RAM for                qrad:       0.56 MB

     Dynamical RAM for          rho,v,vnew:       0.99 MB

     Dynamical RAM for               rhoin:       0.33 MB

     Dynamical RAM for            rho*nmix:       2.51 MB

     Dynamical RAM for           G-vectors:       0.62 MB

     Dynamical RAM for          h,s,v(r/c):       0.29 MB

     Dynamical RAM for          <psi|beta>:       0.02 MB

     Dynamical RAM for                 psi:       0.68 MB

     Dynamical RAM for                hpsi:       0.68 MB

     Dynamical RAM for                spsi:       0.68 MB

     Dynamical RAM for      wfcinit/wfcrot:       0.57 MB

     Dynamical RAM for           addusdens:       8.02 MB

     Estimated static dynamical RAM per process >      18.09 MB

     Estimated max dynamical RAM per process >      26.10 MB

     Estimated total dynamical RAM >     156.62 MB

     Check: negative core charge=   -0.000003

     Initial potential from superposition of free atoms

     starting charge   31.99967, renormalised to   32.00000
     Starting wfcs are   32 randomized atomic wfcs

     total cpu time spent up to now is        2.0 secs

     Self-consistent Calculation

     iteration #  1     ecut=    80.00 Ry     beta= 0.70
     Davidson diagonalization with overlap
     ethr =  1.00E-02,  avg # of iterations =  3.5

     total cpu time spent up to now is        5.7 secs

     total energy              =     -99.16576131 Ry
     Harris-Foulkes estimate   =     -99.45811366 Ry
     estimated scf accuracy    <       0.60842847 Ry

     iteration #  2     ecut=    80.00 Ry     beta= 0.70
     Davidson diagonalization with overlap
     ethr =  1.90E-03,  avg # of iterations =  1.9

     total cpu time spent up to now is        8.2 secs

     total energy              =     -99.21443382 Ry
     Harris-Foulkes estimate   =     -99.21915908 Ry
     estimated scf accuracy    <       0.01471483 Ry

     iteration #  3     ecut=    80.00 Ry     beta= 0.70
     Davidson diagonalization with overlap
     ethr =  4.60E-05,  avg # of iterations =  5.3

     total cpu time spent up to now is       12.4 secs

     total energy              =     -99.21726773 Ry
     Harris-Foulkes estimate   =     -99.21827884 Ry
     estimated scf accuracy    <       0.00191700 Ry

     iteration #  4     ecut=    80.00 Ry     beta= 0.70
     Davidson diagonalization with overlap
     ethr =  5.99E-06,  avg # of iterations =  2.9

     total cpu time spent up to now is       15.9 secs

     total energy              =     -99.21777347 Ry
     Harris-Foulkes estimate   =     -99.21788133 Ry
     estimated scf accuracy    <       0.00025462 Ry

     iteration #  5     ecut=    80.00 Ry     beta= 0.70
     Davidson diagonalization with overlap
     ethr =  7.96E-07,  avg # of iterations =  2.2

     total cpu time spent up to now is       19.0 secs

     total energy              =     -99.21784057 Ry
     Harris-Foulkes estimate   =     -99.21785133 Ry
     estimated scf accuracy    <       0.00002496 Ry

     iteration #  6     ecut=    80.00 Ry     beta= 0.70
     Davidson diagonalization with overlap
     ethr =  7.80E-08,  avg # of iterations =  2.0

     total cpu time spent up to now is       21.7 secs

     total energy              =     -99.21784329 Ry
     Harris-Foulkes estimate   =     -99.21784397 Ry
     estimated scf accuracy    <       0.00000170 Ry

     iteration #  7     ecut=    80.00 Ry     beta= 0.70
     Davidson diagonalization with overlap
     ethr =  5.32E-09,  avg # of iterations =  2.0

     total cpu time spent up to now is       24.9 secs

     End of self-consistent calculation

          k = 0.0000 0.0000 0.0000 (  3287 PWs)   bands (ev):

    -7.6991   1.2269   1.4683   1.4683   1.9452   1.9452   2.1579   7.9683
     7.9683   8.2053   8.4781   8.5979   8.5979  14.8985  14.8985  16.3077
    19.2719  19.7462  19.7462  20.3224

     occupation numbers 
     1.0000   1.0000   1.0000   1.0000   1.0000   1.0000   1.0000   1.0000
     1.0000   1.0000   1.0000   1.0000   1.0000   1.0000   1.0000   0.9341
     0.0000   0.0000   0.0000   0.0000

          k = 0.0000 0.0000 0.1250 (  3327 PWs)   bands (ev):

    -7.5467  -0.4124   1.5547   1.5651   2.0424   2.0610   3.9669   7.6728
     7.7265   8.1163   8.1379   8.3907   8.7219  14.3658  14.4610  15.6688
    19.4711  20.0434  20.3778  20.6967

     occupation numbers 
     1.0000   1.0000   1.0000   1.0000   1.0000   1.0000   1.0000   1.0000
     1.0000   1.0000   1.0000   1.0000   1.0000   1.0000   1.0000   1.0009
     0.0000   0.0000   0.0000   0.0000

          k = 0.0000 0.0000 0.2500 (  3331 PWs)   bands (ev):

    -7.0921  -2.2484   1.8206   1.8271   2.3664   2.3864   6.1116   6.9601
     6.9907   7.3613   7.3863   8.7162   9.1749  13.2005  13.3398  14.3996
    19.4867  20.5922  21.4894  22.0298

     occupation numbers 
     1.0000   1.0000   1.0000   1.0000   1.0000   1.0000   1.0000   1.0000
     1.0000   1.0000   1.0000   1.0000   1.0000   1.0000   1.0000   1.0000
     0.0000   0.0000   0.0000   0.0000

          k = 0.0000 0.0000 0.3750 (  3346 PWs)   bands (ev):

    -6.3504  -3.8400   2.1480   2.1489   2.8003   2.8218   6.0319   6.1232
     6.4924   6.6056   8.5158   9.3514   9.9511  11.9705  11.9709  12.8766
    19.5852  20.3108  23.3198  24.1978

     occupation numbers 
     1.0000   1.0000   1.0000   1.0000   1.0000   1.0000   1.0000   1.0000
     1.0000   1.0000   1.0000   1.0000   1.0000   1.0000   1.0000   1.0000
     0.0000   0.0000   0.0000   0.0000

          k = 0.0000 0.0000-0.5000 (  3362 PWs)   bands (ev):

    -5.5869  -4.8894   2.3079   2.3140   3.0452   3.0678   5.6544   5.7227
     6.1547   6.2711   9.8480  10.1744  10.6400  10.9192  11.2597  11.5759
    19.7156  20.0952  25.1829  25.5902

     occupation numbers 
     1.0000   1.0000   1.0000   1.0000   1.0000   1.0000   1.0000   1.0000
     1.0000   1.0000   1.0000   1.0000   1.0000   1.0000   1.0000   1.0000
     0.0000   0.0000   0.0000   0.0000

          k = 0.0000 0.1250 0.1250 (  3327 PWs)   bands (ev):

    -7.3938  -0.3041  -0.2431   1.7688   2.0247   3.9467   4.0047   7.0593
     7.8511   7.8718   8.3395   8.4004   8.5212  13.7364  14.6118  14.7233
    19.8020  20.1880  20.3596  21.5178

     occupation numbers 
     1.0000   1.0000   1.0000   1.0000   1.0000   1.0000   1.0000   1.0000
     1.0000   1.0000   1.0000   1.0000   1.0000   1.0000   1.0000   1.0000
     0.0000   0.0000   0.0000   0.0000

          k = 0.0000 0.1250 0.2500 (  3336 PWs)   bands (ev):

    -6.9394  -2.1085   0.1006   1.8952   2.3958   4.0278   5.8134   6.1566
     7.1024   7.7865   8.1035   8.5435   9.0540  12.5304  13.1971  14.1603
    20.0496  20.9355  21.4367  21.7549

     occupation numbers 
     1.0000   1.0000   1.0000   1.0000   1.0000   1.0000   1.0000   1.0000
     1.0000   1.0000   1.0000   1.0000   1.0000   1.0000   1.0000   1.0000
     0.0000   0.0000   0.0000   0.0000

          k = 0.0000 0.1250 0.3750 (  3348 PWs)   bands (ev):

    -6.1987  -3.6960   0.6568   1.8909   2.9405   3.8997   5.3216   6.0220
     7.3665   7.6682   7.9752   9.0927  10.2073  11.2480  11.8261  12.9551
    20.1696  21.0510  22.6778  23.7347

     occupation numbers 
     1.0000   1.0000   1.0000   1.0000   1.0000   1.0000   1.0000   1.0000
     1.0000   1.0000   1.0000   1.0000   1.0000   1.0000   1.0000   1.0000
     0.0000   0.0000   0.0000   0.0000

          k = 0.0000 0.1250-0.5000 (  3350 PWs)   bands (ev):

    -5.4395  -4.7403   1.0602   1.7494   3.3133   3.6865   5.2570   5.4821
     7.0548   7.6444   9.1520   9.6038  10.3474  10.5177  11.4471  12.0751
    20.3351  20.7598  24.4359  25.0148

     occupation numbers 
     1.0000   1.0000   1.0000   1.0000   1.0000   1.0000   1.0000   1.0000
     1.0000   1.0000   1.0000   1.0000   1.0000   1.0000   1.0000   1.0000
     0.0000   0.0000   0.0000   0.0000

          k = 0.0000 0.2500 0.2500 (  3333 PWs)   bands (ev):

    -6.4868  -1.7185  -1.6774   1.6049   2.8293   4.8959   5.6097   5.7817
     7.4367   7.4849   8.8451   8.8668   9.2073  11.2884  11.9490  14.1621
    20.8283  21.6936  21.7321  22.7902

     occupation numbers 
     1.0000   1.0000   1.0000   1.0000   1.0000   1.0000   1.0000   1.0000
     1.0000   1.0000   1.0000   1.0000   1.0000   1.0000   1.0000   1.0000
     0.0000   0.0000   0.0000   0.0000

          k = 0.0000 0.2500 0.3750 (  3328 PWs)   bands (ev):

    -5.7505  -3.2663  -1.0486   0.9141   3.4544   4.6329   5.2167   6.2815
     7.0659   8.0361   8.9181   9.3416  10.0031  10.3158  10.9866  13.3972
    21.6539  21.9665  22.7096  23.7201

     occupation numbers 
     1.0000   1.0000   1.0000   1.0000   1.0000   1.0000   1.0000   1.0000
     1.0000   1.0000   1.0000   1.0000   1.0000   1.0000   1.0000   1.0000
     0.0000   0.0000   0.0000   0.0000

          k = 0.0000 0.2500-0.5000 (  3344 PWs)   bands (ev):

    -5.0014  -4.2969  -0.4558   0.2755   3.9744   4.2678   5.4365   5.5821
     8.0285   8.3451   8.7520   9.1622   9.5352   9.7475  11.9448  12.6227
    21.8478  22.3941  23.3783  24.1088

     occupation numbers 
     1.0000   1.0000   1.0000   1.0000   1.0000   1.0000   1.0000   1.0000
     1.0000   1.0000   1.0000   1.0000   1.0000   1.0000   1.0000   1.0000
     0.0000   0.0000   0.0000   0.0000

          k = 0.0000 0.3750 0.3750 (  3343 PWs)   bands (ev):

    -5.0239  -2.5897  -2.5562  -0.2893   4.1354   5.0231   5.8802   6.0682
     6.9648   7.0687   8.7585   9.2088  10.0656  11.0522  11.1111  13.2348
    21.9672  23.5551  23.6319  24.2814

     occupation numbers 
     1.0000   1.0000   1.0000   1.0000   1.0000   1.0000   1.0000   1.0000
     1.0000   1.0000   1.0000   1.0000   1.0000   1.0000   1.0000   1.0000
     0.0000   0.0000   0.0000   0.0000

          k = 0.0000 0.3750-0.5000 (  3336 PWs)   bands (ev):

    -4.2933  -3.5794  -1.8878  -1.1601   4.7145   4.9718   5.9341   6.0672
     6.9844   7.2828   8.1650   8.2878  10.2912  11.1849  12.2562  12.8312
    22.6979  23.3821  23.5858  24.3579

     occupation numbers 
     1.0000   1.0000   1.0000   1.0000   1.0000   1.0000   1.0000   1.0000
     1.0000   1.0000   1.0000   1.0000   1.0000   1.0000   1.0000   1.0000
     0.0000   0.0000   0.0000   0.0000

          k = 0.0000-0.5000-0.5000 (  3348 PWs)   bands (ev):

    -3.5978  -2.8518  -2.8515  -2.1214   5.4014   5.5572   5.8333   6.2517
     6.8276   6.8997   7.4480   7.4709  10.9014  12.0546  12.3149  12.6840
    22.6089  23.4316  23.5028  24.1633

     occupation numbers 
     1.0000   1.0000   1.0000   1.0000   1.0000   1.0000   1.0000   1.0000
     1.0000   1.0000   1.0000   1.0000   1.0000   1.0000   1.0000   1.0000
     0.0000   0.0000   0.0000   0.0000

          k = 0.1250 0.1250 0.1250 (  3329 PWs)   bands (ev):

    -7.2405  -0.1811  -0.1151  -0.1151   3.8925   3.8925   3.9632   7.3810
     7.4484   7.4484   8.4405   8.4405   8.5988  13.2544  14.3263  14.3263
    19.9710  20.2051  20.2051  22.2097

     occupation numbers 
     1.0000   1.0000   1.0000   1.0000   1.0000   1.0000   1.0000   1.0000
     1.0000   1.0000   1.0000   1.0000   1.0000   1.0000   1.0000   1.0000
     0.0000   0.0000   0.0000   0.0000

          k = 0.1250 0.1250 0.2500 (  3334 PWs)   bands (ev):

    -6.7863  -1.9690   0.2080   0.2470   3.7093   3.7562   5.6231   6.6334
     6.6517   8.3673   8.4214   8.4302   8.9339  11.7428  13.3033  14.0258
    20.2325  20.9515  21.1213  21.9689

     occupation numbers 
     1.0000   1.0000   1.0000   1.0000   1.0000   1.0000   1.0000   1.0000
     1.0000   1.0000   1.0000   1.0000   1.0000   1.0000   1.0000   1.0000
     0.0000   0.0000   0.0000   0.0000

          k = 0.1250 0.1250 0.3750 (  3357 PWs)   bands (ev):

    -6.0467  -3.5522   0.7273   0.7599   3.2288   3.2540   6.1791   6.3593
     7.1228   7.9788   8.0158   9.5345   9.8902  10.4998  12.1608  12.9400
    20.4329  21.5401  22.6419  22.8286

     occupation numbers 
     1.0000   1.0000   1.0000   1.0000   1.0000   1.0000   1.0000   1.0000
     1.0000   1.0000   1.0000   1.0000   1.0000   1.0000   1.0000   1.0000
     0.0000   0.0000   0.0000   0.0000

          k = 0.1250 0.1250-0.5000 (  3348 PWs)   bands (ev):

    -5.2915  -4.5918   1.0647   1.0726   2.8979   2.9169   6.1113   6.2300
     7.7305   7.8780   8.3025   8.9944  10.0336  11.3530  11.4481  12.0807
    20.6324  21.2195  24.1869  24.3110

     occupation numbers 
     1.0000   1.0000   1.0000   1.0000   1.0000   1.0000   1.0000   1.0000
     1.0000   1.0000   1.0000   1.0000   1.0000   1.0000   1.0000   1.0000
     0.0000   0.0000   0.0000   0.0000

          k = 0.1250 0.2500 0.2500 (  3333 PWs)   bands (ev):

    -6.3340  -1.5802  -1.5428   0.5181   2.9982   4.8206   4.8645   6.3011
     7.9647   8.0911   8.8854   8.9014   9.3117  10.2414  12.6914  13.9840
    20.9718  21.2318  21.2511  22.9140

     occupation numbers 
     1.0000   1.0000   1.0000   1.0000   1.0000   1.0000   1.0000   1.0000
     1.0000   1.0000   1.0000   1.0000   1.0000   1.0000   1.0000   1.0000
     0.0000   0.0000   0.0000   0.0000

          k = 0.1250 0.2500 0.3750 (  3339 PWs)   bands (ev):

    -5.5991  -3.1237  -0.9217   0.6475   2.3768   3.8394   5.7628   6.5717
     7.5569   8.6019   9.0052   9.1356   9.5039  10.5213  11.6893  13.3229
    21.4856  21.9724  22.7297  22.9090

     occupation numbers 
     1.0000   1.0000   1.0000   1.0000   1.0000   1.0000   1.0000   1.0000
     1.0000   1.0000   1.0000   1.0000   1.0000   1.0000   1.0000   1.0000
     0.0000   0.0000   0.0000   0.0000

          k = 0.1250 0.2500-0.5000 (  3340 PWs)   bands (ev):

    -4.8540  -4.1499  -0.3370   0.2701   2.5293   3.1713   6.4702   6.9494
     7.1748   7.6520   8.9240   9.3943   9.8768  10.8799  11.9333  12.5448
    21.6909  22.4204  23.3862  23.7653

     occupation numbers 
     1.0000   1.0000   1.0000   1.0000   1.0000   1.0000   1.0000   1.0000
     1.0000   1.0000   1.0000   1.0000   1.0000   1.0000   1.0000   1.0000
     0.0000   0.0000   0.0000   0.0000

          k = 0.1250 0.3750 0.3750 (  3339 PWs)   bands (ev):

    -4.8747  -2.4500  -2.4179  -0.2159   2.5163   4.5660   4.6356   6.9161
     7.3948   8.2802   8.4354  10.0978  10.4319  11.0329  11.2311  13.2496
    22.0818  22.9651  22.9999  24.0094

     occupation numbers 
     1.0000   1.0000   1.0000   1.0000   1.0000   1.0000   1.0000   1.0000
     1.0000   1.0000   1.0000   1.0000   1.0000   1.0000   1.0000   1.0000
     0.0000   0.0000   0.0000   0.0000

          k = 0.1250 0.3750-0.5000 (  3342 PWs)   bands (ev):

    -4.1492  -3.4358  -1.7520  -1.0449   3.0303   3.8182   5.4504   6.1319
     7.3251   8.0220   8.8742   9.8661  10.3690  11.2413  12.2886  12.8348
    22.7119  23.1348  23.3828  24.0860

     occupation numbers 
     1.0000   1.0000   1.0000   1.0000   1.0000   1.0000   1.0000   1.0000
     1.0000   1.0000   1.0000   1.0000   1.0000   1.0000   1.0000   1.0000
     0.0000   0.0000   0.0000   0.0000

          k = 0.1250-0.5000-0.5000 (  3332 PWs)   bands (ev):

    -3.4621  -2.7141  -2.7121  -1.9817   3.7142   4.4167   4.6270   5.2234
     7.5928   8.3405   8.7090   9.2599  10.9425  12.1057  12.3642  12.7150
    22.6794  23.4697  23.5301  24.1678

     occupation numbers 
     1.0000   1.0000   1.0000   1.0000   1.0000   1.0000   1.0000   1.0000
     1.0000   1.0000   1.0000   1.0000   1.0000   1.0000   1.0000   1.0000
     0.0000   0.0000   0.0000   0.0000

          k = 0.2500 0.2500 0.2500 (  3329 PWs)   bands (ev):

    -5.8839  -1.2069  -1.1539  -1.1539   3.5538   3.5538   3.6036   7.9504
     8.3168   8.3168   8.8955   9.4573   9.4573   9.6821  13.3464  13.3464
    21.2368  21.3084  21.3084  23.5251

     occupation numbers 
     1.0000   1.0000   1.0000   1.0000   1.0000   1.0000   1.0000   1.0000
     1.0000   1.0000   1.0000   1.0000   1.0000   1.0000   1.0000   1.0000
     0.0000   0.0000   0.0000   0.0000

          k = 0.2500 0.2500 0.3750 (  3335 PWs)   bands (ev):

    -5.1547  -2.7016  -0.6128  -0.5846   2.3583   2.3653   4.3338   6.9670
     8.5638   8.6423   9.6406   9.7129  10.1557  10.5162  12.5265  13.0668
    21.6649  22.1995  22.2503  23.1884

     occupation numbers 
     1.0000   1.0000   1.0000   1.0000   1.0000   1.0000   1.0000   1.0000
     1.0000   1.0000   1.0000   1.0000   1.0000   1.0000   1.0000   1.0000
     0.0000   0.0000   0.0000   0.0000

          k = 0.2500 0.2500-0.5000 (  3342 PWs)   bands (ev):

    -4.4209  -3.7130  -0.2052  -0.2018   1.7326   1.7678   5.1999   5.8954
     8.5364   8.5528   9.7894   9.8773  10.5690  11.9107  11.9496  12.4256
    21.9314  22.7677  23.3166  23.3507

     occupation numbers 
     1.0000   1.0000   1.0000   1.0000   1.0000   1.0000   1.0000   1.0000
     1.0000   1.0000   1.0000   1.0000   1.0000   1.0000   1.0000   1.0000
     0.0000   0.0000   0.0000   0.0000

          k = 0.2500 0.3750 0.3750 (  3322 PWs)   bands (ev):

    -4.4387  -2.0450  -2.0158  -0.3906   1.3872   2.9637   3.0132   5.5507
     9.1717   9.7723   9.9216  10.3485  10.9884  11.1040  12.1682  13.0964
    22.3339  22.5132  22.5614  23.8203

     occupation numbers 
     1.0000   1.0000   1.0000   1.0000   1.0000   1.0000   1.0000   1.0000
     1.0000   1.0000   1.0000   1.0000   1.0000   1.0000   1.0000   1.0000
     0.0000   0.0000   0.0000   0.0000

          k = 0.2500 0.3750-0.5000 (  3326 PWs)   bands (ev):

    -3.7289  -3.0112  -1.3860  -0.7827   1.4938   2.1450   3.7997   4.4830
     9.1283   9.8663  10.2575  10.5677  11.2907  11.6685  12.3546  12.7929
    22.6305  23.0447  23.2804  23.6499

     occupation numbers 
     1.0000   1.0000   1.0000   1.0000   1.0000   1.0000   1.0000   1.0000
     1.0000   1.0000   1.0000   1.0000   1.0000   1.0000   1.0000   1.0000
     0.0000   0.0000   0.0000   0.0000

          k = 0.2500-0.5000-0.5000 (  3312 PWs)   bands (ev):

    -3.0685  -2.3147  -2.3059  -1.5790   2.0573   2.7405   2.9095   3.5356
     9.2683   9.9745  10.6050  11.0556  11.0828  12.2538  12.5001  12.7911
    22.8348  23.4671  23.5018  24.1070

     occupation numbers 
     1.0000   1.0000   1.0000   1.0000   1.0000   1.0000   1.0000   1.0000
     1.0000   1.0000   1.0000   1.0000   1.0000   1.0000   1.0000   1.0000
     0.0000   0.0000   0.0000   0.0000

          k = 0.3750 0.3750 0.3750 (  3334 PWs)   bands (ev):

    -3.7442  -1.4377  -1.4188  -1.4188   1.6050   1.6050   1.6300   4.0802
    10.4745  10.4745  11.0575  11.2640  11.2862  11.2862  12.8162  12.8162
    22.5885  22.5885  22.7402  23.9556

     occupation numbers 
     1.0000   1.0000   1.0000   1.0000   1.0000   1.0000   1.0000   1.0000
     1.0000   1.0000   1.0000   1.0000   1.0000   1.0000   1.0000   1.0000
     0.0000   0.0000   0.0000   0.0000

          k = 0.3750 0.3750-0.5000 (  3338 PWs)   bands (ev):

    -3.0730  -2.3426  -1.0058  -0.9326   0.8707   0.9359   2.3546   3.0329
    10.4528  10.4936  11.2352  11.6019  11.7489  12.4993  12.5453  12.7328
    22.7066  23.0229  23.2675  23.6322

     occupation numbers 
     1.0000   1.0000   1.0000   1.0000   1.0000   1.0000   1.0000   1.0000
     1.0000   1.0000   1.0000   1.0000   1.0000   1.0000   1.0000   1.0000
     0.0000   0.0000   0.0000   0.0000

          k = 0.3750-0.5000-0.5000 (  3332 PWs)   bands (ev):

    -2.4896  -1.7218  -1.7003  -1.0214   0.7645   1.3401   1.4862   2.1074
    10.4934  10.8104  11.5033  12.1101  12.3889  12.5041  12.6888  12.8688
    22.9111  23.0878  23.3531  23.9831

     occupation numbers 
     1.0000   1.0000   1.0000   1.0000   1.0000   1.0000   1.0000   1.0000
     1.0000   1.0000   1.0000   1.0000   1.0000   1.0000   1.0000   1.0000
     0.0000   0.0000   0.0000   0.0000

          k =-0.5000-0.5000-0.5000 (  3328 PWs)   bands (ev):

    -2.0992  -1.2762  -1.2762  -0.8413   0.4814   0.6470   0.6470   1.3969
    10.9323  10.9323  11.7743  12.6973  12.6973  12.8054  12.9009  12.9009
    22.8777  22.8777  23.2233  23.8911

     occupation numbers 
     1.0000   1.0000   1.0000   1.0000   1.0000   1.0000   1.0000   1.0000
     1.0000   1.0000   1.0000   1.0000   1.0000   1.0000   1.0000   1.0000
     0.0000   0.0000   0.0000   0.0000

          k =-0.1250 0.0000 0.1250 (  3327 PWs)   bands (ev):

    -7.3951  -0.4690  -0.0642   1.8983   1.9082   3.7999   4.2577   6.6875
     7.7072   8.0668   8.1132   8.5207   8.8368  13.4704  13.9794  15.8353
    19.8702  20.3028  20.6939  20.8187

     occupation numbers 
     1.0000   1.0000   1.0000   1.0000   1.0000   1.0000   1.0000   1.0000
     1.0000   1.0000   1.0000   1.0000   1.0000   1.0000   1.0000   1.0101
     0.0000   0.0000   0.0000   0.0000

          k =-0.1250 0.0000 0.2500 (  3336 PWs)   bands (ev):

    -6.9419  -2.1156   0.1108   2.0501   2.2681   4.1453   5.5346   6.2827
     7.1040   7.4629   8.3834   8.6947   8.9633  12.1806  12.8526  15.0673
    20.1504  20.9537  21.1824  22.2002

     occupation numbers 
     1.0000   1.0000   1.0000   1.0000   1.0000   1.0000   1.0000   1.0000
     1.0000   1.0000   1.0000   1.0000   1.0000   1.0000   1.0000   1.0000
     0.0000   0.0000   0.0000   0.0000

          k =-0.1250 0.0000 0.3750 (  3348 PWs)   bands (ev):

    -6.2019  -3.6945   0.6370   2.0405   2.7928   4.0668   5.0245   6.1958
     6.9259   8.0271   8.3348   9.2363   9.7303  10.8549  11.6307  13.6945
    20.2749  20.8313  22.8971  24.1356

     occupation numbers 
     1.0000   1.0000   1.0000   1.0000   1.0000   1.0000   1.0000   1.0000
     1.0000   1.0000   1.0000   1.0000   1.0000   1.0000   1.0000   1.0000
     0.0000   0.0000   0.0000   0.0000

          k =-0.2500 0.0000 0.2500 (  3333 PWs)   bands (ev):

    -6.4914  -1.8691  -1.5126   1.7580   2.6865   4.5691   5.8652   6.1481
     7.3285   7.7536   7.8834   8.9351   9.6377  10.8689  11.7862  15.0142
    20.9733  21.6760  21.8732  22.3438

     occupation numbers 
     1.0000   1.0000   1.0000   1.0000   1.0000   1.0000   1.0000   1.0000
     1.0000   1.0000   1.0000   1.0000   1.0000   1.0000   1.0000   1.0000
     0.0000   0.0000   0.0000   0.0000

          k =-0.2500 0.0000 0.3750 (  3328 PWs)   bands (ev):

    -5.7564  -3.2678  -1.0365   0.9907   3.2932   4.4795   5.4130   6.4572
     7.3144   8.2082   8.2824   9.5792   9.7411  10.0624  10.8128  14.1035
    21.7536  22.0953  22.3543  24.3448

     occupation numbers 
     1.0000   1.0000   1.0000   1.0000   1.0000   1.0000   1.0000   1.0000
     1.0000   1.0000   1.0000   1.0000   1.0000   1.0000   1.0000   1.0000
     0.0000   0.0000   0.0000   0.0000

          k =-0.3750 0.0000 0.3750 (  3343 PWs)   bands (ev):

    -5.0306  -2.7204  -2.4056  -0.2723   3.9639   4.8722   6.1371   6.4640
     6.7976   7.3184   8.4145   9.0098   9.9006  10.7384  11.2432  13.8182
    22.1065  23.0633  24.0399  24.3761

     occupation numbers 
     1.0000   1.0000   1.0000   1.0000   1.0000   1.0000   1.0000   1.0000
     1.0000   1.0000   1.0000   1.0000   1.0000   1.0000   1.0000   1.0000
     0.0000   0.0000   0.0000   0.0000

          k = 0.1250-0.1250 0.1250 (  3329 PWs)   bands (ev):

    -7.2432  -0.4292  -0.1210   0.1730   3.7132   4.0107   4.3392   6.8251
     6.9255   7.2568   8.5022   8.9616   9.0032  12.5473  14.2081  15.3398
    19.8627  20.4341  20.8378  21.2749

     occupation numbers 
     1.0000   1.0000   1.0000   1.0000   1.0000   1.0000   1.0000   1.0000
     1.0000   1.0000   1.0000   1.0000   1.0000   1.0000   1.0000   1.0000
     0.0000   0.0000   0.0000   0.0000

          k = 0.1250-0.1250 0.2500 (  3334 PWs)   bands (ev):

    -6.7901  -1.9769  -0.0052   0.4845   3.7815   4.1183   5.6980   6.0159
     6.3963   7.6405   8.5644   8.9335   9.4432  11.1985  13.5132  14.4606
    20.3836  20.9638  21.6136  21.7126

     occupation numbers 
     1.0000   1.0000   1.0000   1.0000   1.0000   1.0000   1.0000   1.0000
     1.0000   1.0000   1.0000   1.0000   1.0000   1.0000   1.0000   1.0000
     0.0000   0.0000   0.0000   0.0000

          k =-0.2500 0.1250 0.1250 (  3334 PWs)   bands (ev):

    -6.7912  -1.9868   0.2333   0.2632   3.8693   3.9273   5.7629   6.0818
     6.3651   7.7768   8.7162   8.9762   9.0893  11.1433  13.1567  15.0158
    20.2505  21.3280  21.3939  21.5354

     occupation numbers 
     1.0000   1.0000   1.0000   1.0000   1.0000   1.0000   1.0000   1.0000
     1.0000   1.0000   1.0000   1.0000   1.0000   1.0000   1.0000   1.0000
     0.0000   0.0000   0.0000   0.0000

          k = 0.1250-0.1250 0.3750 (  3357 PWs)   bands (ev):

    -6.0512  -3.5511   0.4141   1.0656   3.2952   3.6828   5.4439   6.1539
     7.1957   7.8575   8.5534   9.3134   9.9622  10.2517  12.2973  13.2645
    20.6770  21.3956  22.6403  23.3769

     occupation numbers 
     1.0000   1.0000   1.0000   1.0000   1.0000   1.0000   1.0000   1.0000
     1.0000   1.0000   1.0000   1.0000   1.0000   1.0000   1.0000   1.0000
     0.0000   0.0000   0.0000   0.0000

          k =-0.3750 0.1250 0.1250 (  3357 PWs)   bands (ev):

    -6.0530  -3.5502   0.7389   0.7514   3.3354   3.3829   5.8412   5.9528
     7.5993   8.1397   8.2936   9.4029   9.6162   9.9415  12.0404  13.7964
    20.5482  21.2386  23.0592  23.1189

     occupation numbers 
     1.0000   1.0000   1.0000   1.0000   1.0000   1.0000   1.0000   1.0000
     1.0000   1.0000   1.0000   1.0000   1.0000   1.0000   1.0000   1.0000
     0.0000   0.0000   0.0000   0.0000

          k = 0.1250-0.1250-0.5000 (  3348 PWs)   bands (ev):

    -5.2935  -4.5913   0.6484   1.4988   2.7913   3.3897   5.4068   6.3410
     7.5130   7.9800   8.3510   8.9275  10.6139  11.3044  11.3603  11.9972
    20.8916  21.1517  24.1331  25.3002

     occupation numbers 
     1.0000   1.0000   1.0000   1.0000   1.0000   1.0000   1.0000   1.0000
     1.0000   1.0000   1.0000   1.0000   1.0000   1.0000   1.0000   1.0000
     0.0000   0.0000   0.0000   0.0000

          k = 0.2500-0.1250 0.2500 (  3333 PWs)   bands (ev):

    -6.3388  -1.6027  -1.5441   0.4943   3.4864   4.8920   4.9993   5.6791
     7.3111   7.5049   9.3167   9.5206   9.5960   9.8359  13.2761  13.7980
    20.7945  21.5584  21.8308  23.0600

     occupation numbers 
     1.0000   1.0000   1.0000   1.0000   1.0000   1.0000   1.0000   1.0000
     1.0000   1.0000   1.0000   1.0000   1.0000   1.0000   1.0000   1.0000
     0.0000   0.0000   0.0000   0.0000

          k =-0.2500 0.1250 0.2500 (  3333 PWs)   bands (ev):

    -6.3409  -1.7488  -1.3754   0.5533   3.1074   4.9668   5.2744   5.7761
     7.2768   7.7089   8.9110   9.4042   9.7256   9.8245  12.6234  14.7006
    20.9156  21.4781  21.8700  22.1866

     occupation numbers 
     1.0000   1.0000   1.0000   1.0000   1.0000   1.0000   1.0000   1.0000
     1.0000   1.0000   1.0000   1.0000   1.0000   1.0000   1.0000   1.0000
     0.0000   0.0000   0.0000   0.0000

          k = 0.2500-0.1250 0.3750 (  3339 PWs)   bands (ev):

    -5.6045  -3.1241  -0.9497   0.5591   2.8863   3.8791   5.7638   5.9339
     7.2642   8.3020   8.8637   9.4853   9.6828  10.7529  12.1043  13.1524
    21.6296  22.1698  22.8153  23.4165

     occupation numbers 
     1.0000   1.0000   1.0000   1.0000   1.0000   1.0000   1.0000   1.0000
     1.0000   1.0000   1.0000   1.0000   1.0000   1.0000   1.0000   1.0000
     0.0000   0.0000   0.0000   0.0000

          k =-0.2500 0.1250 0.3750 (  3339 PWs)   bands (ev):

    -5.6072  -3.1262  -0.9517   0.7123   2.4095   4.2301   5.7093   6.0488
     7.4160   8.2576   8.6668   9.5731   9.9025  10.3483  11.6030  13.8666
    21.8788  22.1313  22.3605  23.3854

     occupation numbers 
     1.0000   1.0000   1.0000   1.0000   1.0000   1.0000   1.0000   1.0000
     1.0000   1.0000   1.0000   1.0000   1.0000   1.0000   1.0000   1.0000
     0.0000   0.0000   0.0000   0.0000

          k =-0.3750 0.2500 0.1250 (  3339 PWs)   bands (ev):

    -5.6077  -3.1280  -0.9018   0.6627   2.4107   3.9009   6.0234   6.2964
     7.4959   8.3229   8.7331   9.0494   9.8947  10.3210  11.6413  13.9648
    21.5085  22.1798  22.4876  23.3401

     occupation numbers 
     1.0000   1.0000   1.0000   1.0000   1.0000   1.0000   1.0000   1.0000
     1.0000   1.0000   1.0000   1.0000   1.0000   1.0000   1.0000   1.0000
     0.0000   0.0000   0.0000   0.0000

          k = 0.2500-0.1250-0.5000 (  3340 PWs)   bands (ev):

    -4.8574  -4.1490  -0.4478   0.3340   2.7141   3.3914   6.0768   6.4598
     7.2640   7.5251   8.8990   9.7474  10.2801  10.8460  11.8492  12.5126
    22.0820  22.3895  23.3527  24.3958

     occupation numbers 
     1.0000   1.0000   1.0000   1.0000   1.0000   1.0000   1.0000   1.0000
     1.0000   1.0000   1.0000   1.0000   1.0000   1.0000   1.0000   1.0000
     0.0000   0.0000   0.0000   0.0000

          k = 0.3750-0.1250 0.3750 (  3339 PWs)   bands (ev):

    -4.8799  -2.4580  -2.4181  -0.2729   2.9526   4.5332   4.6212   6.3503
     7.0818   8.1652   8.5290  10.2581  10.6832  11.2134  11.4425  13.0637
    22.0261  23.5589  23.6195  24.2761

     occupation numbers 
     1.0000   1.0000   1.0000   1.0000   1.0000   1.0000   1.0000   1.0000
     1.0000   1.0000   1.0000   1.0000   1.0000   1.0000   1.0000   1.0000
     0.0000   0.0000   0.0000   0.0000

          k =-0.3750 0.1250 0.3750 (  3339 PWs)   bands (ev):

    -4.8836  -2.5927  -2.2624  -0.2112   2.5468   4.6028   4.9368   6.4519
     7.0362   8.3482   8.8214   9.6725  10.5250  10.8828  11.3681  13.7264
    22.1888  22.9641  23.4912  23.8182

     occupation numbers 
     1.0000   1.0000   1.0000   1.0000   1.0000   1.0000   1.0000   1.0000
     1.0000   1.0000   1.0000   1.0000   1.0000   1.0000   1.0000   1.0000
     0.0000   0.0000   0.0000   0.0000

          k = 0.3750-0.1250-0.5000 (  3342 PWs)   bands (ev):

    -4.1519  -3.4347  -1.7776  -1.0390   3.2376   3.9482   5.2136   6.0361
     6.9779   7.9056   9.2464   9.8898  10.4533  11.3245  12.2490  12.8054
    22.7627  23.4567  23.7419  24.0121

     occupation numbers 
     1.0000   1.0000   1.0000   1.0000   1.0000   1.0000   1.0000   1.0000
     1.0000   1.0000   1.0000   1.0000   1.0000   1.0000   1.0000   1.0000
     0.0000   0.0000   0.0000   0.0000

          k = 0.2500-0.2500 0.2500 (  3329 PWs)   bands (ev):

    -5.8927  -1.4771  -1.1573  -0.8568   3.5605   3.6538   3.9890   7.0702
     7.6730   8.0244   8.5735   9.6779  10.1785  10.1852  13.0747  14.0148
    21.0229  21.6498  22.0175  22.7846

     occupation numbers 
     1.0000   1.0000   1.0000   1.0000   1.0000   1.0000   1.0000   1.0000
     1.0000   1.0000   1.0000   1.0000   1.0000   1.0000   1.0000   1.0000
     0.0000   0.0000   0.0000   0.0000

          k = 0.2500-0.2500 0.3750 (  3335 PWs)   bands (ev):

    -5.1639  -2.7088  -0.8942  -0.2984   2.2934   2.7926   4.3254   6.6492
     7.5703   8.5007   9.4300  10.2253  10.5145  10.8935  12.5169  13.2829
    21.8689  22.3352  22.8641  23.1102

     occupation numbers 
     1.0000   1.0000   1.0000   1.0000   1.0000   1.0000   1.0000   1.0000
     1.0000   1.0000   1.0000   1.0000   1.0000   1.0000   1.0000   1.0000
     0.0000   0.0000   0.0000   0.0000

          k =-0.3750 0.2500 0.2500 (  3335 PWs)   bands (ev):

    -5.1649  -2.7213  -0.5904  -0.5503   2.3362   2.4029   4.6711   6.6330
     8.1189   8.1418   9.6572  10.0348  10.3966  10.6162  12.2865  13.7016
    21.6279  22.5496  22.5789  22.9047

     occupation numbers 
     1.0000   1.0000   1.0000   1.0000   1.0000   1.0000   1.0000   1.0000
     1.0000   1.0000   1.0000   1.0000   1.0000   1.0000   1.0000   1.0000
     0.0000   0.0000   0.0000   0.0000

          k = 0.2500-0.2500-0.5000 (  3342 PWs)   bands (ev):

    -4.4258  -3.7114  -0.6214   0.2031   1.5564   2.2686   4.9568   5.8372
     7.6295   8.8317   9.4867  10.5047  11.2111  11.7336  11.8689  12.3726
    22.5322  22.6988  23.1966  24.4823

     occupation numbers 
     1.0000   1.0000   1.0000   1.0000   1.0000   1.0000   1.0000   1.0000
     1.0000   1.0000   1.0000   1.0000   1.0000   1.0000   1.0000   1.0000
     0.0000   0.0000   0.0000   0.0000

          k = 0.3750-0.2500 0.3750 (  3322 PWs)   bands (ev):

    -4.4461  -2.0869  -2.0165  -0.4392   1.7869   2.9366   2.9920   5.3164
     8.3318   9.3807  10.0541  10.6861  11.3957  11.5135  12.5014  12.7814
    22.2204  23.0901  23.2906  23.8237

     occupation numbers 
     1.0000   1.0000   1.0000   1.0000   1.0000   1.0000   1.0000   1.0000
     1.0000   1.0000   1.0000   1.0000   1.0000   1.0000   1.0000   1.0000
     0.0000   0.0000   0.0000   0.0000

          k =-0.3750 0.2500 0.3750 (  3322 PWs)   bands (ev):

    -4.4471  -2.2316  -1.8447  -0.3465   1.3792   2.9464   3.2970   5.2910
     8.4577   9.7576   9.9567  10.5101  11.1048  11.3982  12.0265  13.4717
    22.3058  22.8257  23.0628  23.4648

     occupation numbers 
     1.0000   1.0000   1.0000   1.0000   1.0000   1.0000   1.0000   1.0000
     1.0000   1.0000   1.0000   1.0000   1.0000   1.0000   1.0000   1.0000
     0.0000   0.0000   0.0000   0.0000

          k = 0.3750-0.2500-0.5000 (  3326 PWs)   bands (ev):

    -3.7305  -3.0097  -1.4860  -0.7263   1.6292   2.3328   3.5796   4.4285
     8.6244   9.6922  10.4014  11.0732  11.4215  11.7110  12.2776  12.7569
    22.9096  23.2687  23.5673  23.9512

     occupation numbers 
     1.0000   1.0000   1.0000   1.0000   1.0000   1.0000   1.0000   1.0000
     1.0000   1.0000   1.0000   1.0000   1.0000   1.0000   1.0000   1.0000
     0.0000   0.0000   0.0000   0.0000

          k = 0.3750-0.3750 0.3750 (  3334 PWs)   bands (ev):

    -3.7449  -1.8009  -1.4202  -1.0301   1.4154   1.6177   2.0098   3.8597
     9.7353  10.1134  11.1382  11.2790  11.7953  11.8546  12.5228  13.1369
    22.5215  23.0412  23.2111  23.5563

     occupation numbers 
     1.0000   1.0000   1.0000   1.0000   1.0000   1.0000   1.0000   1.0000
     1.0000   1.0000   1.0000   1.0000   1.0000   1.0000   1.0000   1.0000
     0.0000   0.0000   0.0000   0.0000

          k = 0.3750-0.3750-0.5000 (  3338 PWs)   bands (ev):

    -3.0623  -2.3459  -1.3539  -0.5777   0.6826   1.3674   2.1706   2.9604
     9.9043  10.6048  11.1734  11.9130  12.1499  12.3330  12.5255  12.7483
    22.9772  23.1614  23.5802  23.6663

     occupation numbers 
     1.0000   1.0000   1.0000   1.0000   1.0000   1.0000   1.0000   1.0000
     1.0000   1.0000   1.0000   1.0000   1.0000   1.0000   1.0000   1.0000
     0.0000   0.0000   0.0000   0.0000

     the Fermi energy is    16.5179 ev

!    total energy              =     -99.21784374 Ry
     Harris-Foulkes estimate   =     -99.21784377 Ry
     estimated scf accuracy    <       0.00000008 Ry

     The total energy is the sum of the following terms:

     one-electron contribution =      37.15625897 Ry
     hartree contribution      =       7.50446469 Ry
     xc contribution           =     -38.24376179 Ry
     ewald contribution        =    -105.63482211 Ry
     smearing contrib. (-TS)   =       0.00001650 Ry

     convergence has been achieved in   7 iterations

     Writing output data file c-3.446.save/

     init_run     :      1.65s CPU      1.71s WALL (       1 calls)
     electrons    :     22.17s CPU     22.91s WALL (       1 calls)

     Called by init_run:
     wfcinit      :      1.43s CPU      1.49s WALL (       1 calls)
     wfcinit:atom :      0.01s CPU      0.01s WALL (      65 calls)
     wfcinit:wfcr :      1.35s CPU      1.41s WALL (      65 calls)
     potinit      :      0.02s CPU      0.03s WALL (       1 calls)
     hinit0       :      0.09s CPU      0.09s WALL (       1 calls)

     Called by electrons:
     c_bands      :     19.48s CPU     20.08s WALL (       7 calls)
     sum_band     :      2.47s CPU      2.60s WALL (       7 calls)
     v_of_rho     :      0.11s CPU      0.11s WALL (       8 calls)
     v_h          :      0.01s CPU      0.01s WALL (       8 calls)
     v_xc         :      0.10s CPU      0.10s WALL (       8 calls)
     newd         :      0.11s CPU      0.12s WALL (       8 calls)
     mix_rho      :      0.01s CPU      0.01s WALL (       7 calls)

     Called by c_bands:
     init_us_2    :      0.21s CPU      0.22s WALL (     975 calls)
     cegterg      :     18.80s CPU     19.40s WALL (     455 calls)

     Called by sum_band:
     sum_band:bec :      0.01s CPU      0.01s WALL (     455 calls)
     addusdens    :      0.05s CPU      0.06s WALL (       7 calls)

     Called by *egterg:
     h_psi        :     12.69s CPU     13.28s WALL (    1810 calls)
     s_psi        :      1.35s CPU      1.37s WALL (    1810 calls)
     g_psi        :      0.07s CPU      0.07s WALL (    1290 calls)
     cdiaghg      :      1.39s CPU      1.40s WALL (    1745 calls)
     cegterg:over :      2.16s CPU      2.18s WALL (    1290 calls)
     cegterg:upda :      0.80s CPU      0.80s WALL (    1290 calls)
     cegterg:last :      0.39s CPU      0.39s WALL (     455 calls)

     Called by h_psi:
     h_psi:pot    :     12.65s CPU     13.24s WALL (    1810 calls)
     h_psi:calbec :      2.00s CPU      2.10s WALL (    1810 calls)
     vloc_psi     :      9.29s CPU      9.74s WALL (    1810 calls)
     add_vuspsi   :      1.36s CPU      1.40s WALL (    1810 calls)

     General routines
     calbec       :      2.63s CPU      2.77s WALL (    2265 calls)
     fft          :      0.07s CPU      0.07s WALL (     102 calls)
     ffts         :      0.00s CPU      0.00s WALL (      15 calls)
     fftw         :      9.95s CPU     10.44s WALL (   62594 calls)
     interpolate  :      0.01s CPU      0.01s WALL (       8 calls)

     Parallel routines
     fft_scatt_xy :      0.78s CPU      0.81s WALL (   62711 calls)
     fft_scatt_yz :      4.87s CPU      5.12s WALL (   62711 calls)

     PWSCF        :     24.19s CPU     25.08s WALL


   This run was terminated on:  19: 6: 3  26May2022            

=------------------------------------------------------------------------------=
   JOB DONE.
=------------------------------------------------------------------------------=
