
     Program PWSCF v.6.4.1 starts on 26May2022 at 19: 8:11 

     This program is part of the open-source Quantum ESPRESSO suite
     for quantum simulation of materials; please cite
         "P. Giannozzi et al., J. Phys.:Condens. Matter 21 395502 (2009);
         "P. Giannozzi et al., J. Phys.:Condens. Matter 29 465901 (2017);
          URL http://www.quantum-espresso.org", 
     in publications or presentations arising from this work. More details at
     http://www.quantum-espresso.org/quote

     Parallel version (MPI), running on     6 processors

     MPI processes distributed on     1 nodes
     R & G space division:  proc/nbgrp/npool/nimage =       6
     Reading input from c-3.586.in

     Current dimensions of program PWSCF are:
     Max number of different atomic species (ntypx) = 10
     Max number of k-points (npk) =  40000
     Max angular momentum in pseudopotentials (lmaxx) =  3

     Subspace diagonalization in iterative solution of the eigenvalue problem:
     a serial algorithm will be used

     Message from routine setup:
     DEPRECATED: symmetry with ibrav=0, use correct ibrav instead

     Parallelization info
     --------------------
     sticks:   dense  smooth     PW     G-vecs:    dense   smooth      PW
     Min         342     196     58                11630     5014     824
     Max         343     197     59                11633     5017     825
     Sum        2053    1177    349                69791    30095    4945



     bravais-lattice index     =            0
     lattice parameter (alat)  =       6.7766  a.u.
     unit-cell volume          =     311.1913 (a.u.)^3
     number of atoms/cell      =            8
     number of atomic types    =            1
     number of electrons       =        32.00
     number of Kohn-Sham states=           20
     kinetic-energy cutoff     =      80.0000  Ry
     charge density cutoff     =     560.0000  Ry
     convergence threshold     =      1.0E-06
     mixing beta               =       0.7000
     number of iterations used =            8  plain     mixing
     Exchange-correlation      = PBE ( 1  4  3  4 0 0)

     celldm(1)=   6.776558  celldm(2)=   0.000000  celldm(3)=   0.000000
     celldm(4)=   0.000000  celldm(5)=   0.000000  celldm(6)=   0.000000

     crystal axes: (cart. coord. in units of alat)
               a(1) = (   1.000000   0.000000   0.000000 )  
               a(2) = (   0.000000   1.000000   0.000000 )  
               a(3) = (   0.000000   0.000000   1.000000 )  

     reciprocal axes: (cart. coord. in units 2 pi/alat)
               b(1) = (  1.000000  0.000000  0.000000 )  
               b(2) = (  0.000000  1.000000  0.000000 )  
               b(3) = (  0.000000  0.000000  1.000000 )  


     PseudoPot. # 1 for C  read from file:
     /home/cristian/Escritorio/Proyecto_Grafeno/pseudopotenciales/C.pbe-n-rrkjus_psl.1.0.0.UPF
     MD5 check sum: 1fdd950c42eb37d8afe3dd2f8d12311e
     Pseudo is Ultrasoft + core correction, Zval =  4.0
     Generated using "atomic" code by A. Dal Corso v.6.3MaX
     Using radial grid of 1073 points,  4 beta functions with: 
                l(1) =   0
                l(2) =   0
                l(3) =   1
                l(4) =   1
     Q(r) pseudized with 0 coefficients 


     atomic species   valence    mass     pseudopotential
        C              4.00    12.01100     C ( 1.00)

      6 Sym. Ops. (no inversion) found


                                    s                        frac. trans.

      isym =  1     identity                                     

 cryst.   s( 1) = (     1          0          0      )
                  (     0          1          0      )
                  (     0          0          1      )

 cart.    s( 1) = (  1.0000000  0.0000000  0.0000000 )
                  (  0.0000000  1.0000000  0.0000000 )
                  (  0.0000000  0.0000000  1.0000000 )


      isym =  2     120 deg rotation - cart. axis [-1,-1,-1]     

 cryst.   s( 2) = (     0          0          1      )
                  (     1          0          0      )
                  (     0          1          0      )

 cart.    s( 2) = (  0.0000000  1.0000000  0.0000000 )
                  (  0.0000000  0.0000000  1.0000000 )
                  (  1.0000000  0.0000000  0.0000000 )


      isym =  3     120 deg rotation - cart. axis [1,1,1]        

 cryst.   s( 3) = (     0          1          0      )
                  (     0          0          1      )
                  (     1          0          0      )

 cart.    s( 3) = (  0.0000000  0.0000000  1.0000000 )
                  (  1.0000000  0.0000000  0.0000000 )
                  (  0.0000000  1.0000000  0.0000000 )


      isym =  4     inv. 180 deg rotation - cart. axis [1,-1,0]  

 cryst.   s( 4) = (     0          1          0      )
                  (     1          0          0      )
                  (     0          0          1      )

 cart.    s( 4) = (  0.0000000  1.0000000  0.0000000 )
                  (  1.0000000  0.0000000  0.0000000 )
                  (  0.0000000  0.0000000  1.0000000 )


      isym =  5     inv. 180 deg rotation - cart. axis [-1,0,1]  

 cryst.   s( 5) = (     0          0          1      )
                  (     0          1          0      )
                  (     1          0          0      )

 cart.    s( 5) = (  0.0000000  0.0000000  1.0000000 )
                  (  0.0000000  1.0000000  0.0000000 )
                  (  1.0000000  0.0000000  0.0000000 )


      isym =  6     inv. 180 deg rotation - cart. axis [0,1,-1]  

 cryst.   s( 6) = (     1          0          0      )
                  (     0          0          1      )
                  (     0          1          0      )

 cart.    s( 6) = (  1.0000000  0.0000000  0.0000000 )
                  (  0.0000000  0.0000000  1.0000000 )
                  (  0.0000000  1.0000000  0.0000000 )


   Cartesian axes

     site n.     atom                  positions (alat units)
         1           C   tau(   1) = (   0.0000000   0.0000000   0.0000000  )
         2           C   tau(   2) = (   0.4972114   0.4972114   0.0000000  )
         3           C   tau(   3) = (   0.0000000   0.4972114   0.4972114  )
         4           C   tau(   4) = (   0.4972114   0.0000000   0.4972114  )
         5           C   tau(   5) = (   0.2486057   0.2486057   0.2486057  )
         6           C   tau(   6) = (   0.7458171   0.7458171   0.2486057  )
         7           C   tau(   7) = (   0.2486057   0.7458171   0.7458171  )
         8           C   tau(   8) = (   0.7458171   0.2486057   0.7458171  )

   Crystallographic axes

     site n.     atom                  positions (cryst. coord.)
         1           C   tau(   1) = (  0.0000000  0.0000000  0.0000000  )
         2           C   tau(   2) = (  0.4972114  0.4972114  0.0000000  )
         3           C   tau(   3) = (  0.0000000  0.4972114  0.4972114  )
         4           C   tau(   4) = (  0.4972114  0.0000000  0.4972114  )
         5           C   tau(   5) = (  0.2486057  0.2486057  0.2486057  )
         6           C   tau(   6) = (  0.7458171  0.7458171  0.2486057  )
         7           C   tau(   7) = (  0.2486057  0.7458171  0.7458171  )
         8           C   tau(   8) = (  0.7458171  0.2486057  0.7458171  )

     number of k points=    65  Marzari-Vanderbilt smearing, width (Ry)=  0.0200
                       cart. coord. in units 2pi/alat
        k(    1) = (   0.0000000   0.0000000   0.0000000), wk =   0.0039062
        k(    2) = (   0.0000000   0.0000000   0.1250000), wk =   0.0234375
        k(    3) = (   0.0000000   0.0000000   0.2500000), wk =   0.0234375
        k(    4) = (   0.0000000   0.0000000   0.3750000), wk =   0.0234375
        k(    5) = (   0.0000000   0.0000000  -0.5000000), wk =   0.0117188
        k(    6) = (   0.0000000   0.1250000   0.1250000), wk =   0.0234375
        k(    7) = (   0.0000000   0.1250000   0.2500000), wk =   0.0468750
        k(    8) = (   0.0000000   0.1250000   0.3750000), wk =   0.0468750
        k(    9) = (   0.0000000   0.1250000  -0.5000000), wk =   0.0468750
        k(   10) = (   0.0000000   0.2500000   0.2500000), wk =   0.0234375
        k(   11) = (   0.0000000   0.2500000   0.3750000), wk =   0.0468750
        k(   12) = (   0.0000000   0.2500000  -0.5000000), wk =   0.0468750
        k(   13) = (   0.0000000   0.3750000   0.3750000), wk =   0.0234375
        k(   14) = (   0.0000000   0.3750000  -0.5000000), wk =   0.0468750
        k(   15) = (   0.0000000  -0.5000000  -0.5000000), wk =   0.0117188
        k(   16) = (   0.1250000   0.1250000   0.1250000), wk =   0.0078125
        k(   17) = (   0.1250000   0.1250000   0.2500000), wk =   0.0234375
        k(   18) = (   0.1250000   0.1250000   0.3750000), wk =   0.0234375
        k(   19) = (   0.1250000   0.1250000  -0.5000000), wk =   0.0234375
        k(   20) = (   0.1250000   0.2500000   0.2500000), wk =   0.0234375
        k(   21) = (   0.1250000   0.2500000   0.3750000), wk =   0.0468750
        k(   22) = (   0.1250000   0.2500000  -0.5000000), wk =   0.0468750
        k(   23) = (   0.1250000   0.3750000   0.3750000), wk =   0.0234375
        k(   24) = (   0.1250000   0.3750000  -0.5000000), wk =   0.0468750
        k(   25) = (   0.1250000  -0.5000000  -0.5000000), wk =   0.0234375
        k(   26) = (   0.2500000   0.2500000   0.2500000), wk =   0.0078125
        k(   27) = (   0.2500000   0.2500000   0.3750000), wk =   0.0234375
        k(   28) = (   0.2500000   0.2500000  -0.5000000), wk =   0.0234375
        k(   29) = (   0.2500000   0.3750000   0.3750000), wk =   0.0234375
        k(   30) = (   0.2500000   0.3750000  -0.5000000), wk =   0.0468750
        k(   31) = (   0.2500000  -0.5000000  -0.5000000), wk =   0.0234375
        k(   32) = (   0.3750000   0.3750000   0.3750000), wk =   0.0078125
        k(   33) = (   0.3750000   0.3750000  -0.5000000), wk =   0.0234375
        k(   34) = (   0.3750000  -0.5000000  -0.5000000), wk =   0.0234375
        k(   35) = (  -0.5000000  -0.5000000  -0.5000000), wk =   0.0039062
        k(   36) = (  -0.1250000   0.0000000   0.1250000), wk =   0.0234375
        k(   37) = (  -0.1250000   0.0000000   0.2500000), wk =   0.0468750
        k(   38) = (  -0.1250000   0.0000000   0.3750000), wk =   0.0468750
        k(   39) = (  -0.2500000   0.0000000   0.2500000), wk =   0.0234375
        k(   40) = (  -0.2500000   0.0000000   0.3750000), wk =   0.0468750
        k(   41) = (  -0.3750000   0.0000000   0.3750000), wk =   0.0234375
        k(   42) = (   0.1250000  -0.1250000   0.1250000), wk =   0.0234375
        k(   43) = (   0.1250000  -0.1250000   0.2500000), wk =   0.0468750
        k(   44) = (  -0.2500000   0.1250000   0.1250000), wk =   0.0234375
        k(   45) = (   0.1250000  -0.1250000   0.3750000), wk =   0.0468750
        k(   46) = (  -0.3750000   0.1250000   0.1250000), wk =   0.0234375
        k(   47) = (   0.1250000  -0.1250000  -0.5000000), wk =   0.0234375
        k(   48) = (   0.2500000  -0.1250000   0.2500000), wk =   0.0234375
        k(   49) = (  -0.2500000   0.1250000   0.2500000), wk =   0.0468750
        k(   50) = (   0.2500000  -0.1250000   0.3750000), wk =   0.0468750
        k(   51) = (  -0.2500000   0.1250000   0.3750000), wk =   0.0468750
        k(   52) = (  -0.3750000   0.2500000   0.1250000), wk =   0.0468750
        k(   53) = (   0.2500000  -0.1250000  -0.5000000), wk =   0.0468750
        k(   54) = (   0.3750000  -0.1250000   0.3750000), wk =   0.0234375
        k(   55) = (  -0.3750000   0.1250000   0.3750000), wk =   0.0468750
        k(   56) = (   0.3750000  -0.1250000  -0.5000000), wk =   0.0468750
        k(   57) = (   0.2500000  -0.2500000   0.2500000), wk =   0.0234375
        k(   58) = (   0.2500000  -0.2500000   0.3750000), wk =   0.0468750
        k(   59) = (  -0.3750000   0.2500000   0.2500000), wk =   0.0234375
        k(   60) = (   0.2500000  -0.2500000  -0.5000000), wk =   0.0234375
        k(   61) = (   0.3750000  -0.2500000   0.3750000), wk =   0.0234375
        k(   62) = (  -0.3750000   0.2500000   0.3750000), wk =   0.0468750
        k(   63) = (   0.3750000  -0.2500000  -0.5000000), wk =   0.0468750
        k(   64) = (   0.3750000  -0.3750000   0.3750000), wk =   0.0234375
        k(   65) = (   0.3750000  -0.3750000  -0.5000000), wk =   0.0234375

                       cryst. coord.
        k(    1) = (   0.0000000   0.0000000   0.0000000), wk =   0.0039062
        k(    2) = (   0.0000000   0.0000000   0.1250000), wk =   0.0234375
        k(    3) = (   0.0000000   0.0000000   0.2500000), wk =   0.0234375
        k(    4) = (   0.0000000   0.0000000   0.3750000), wk =   0.0234375
        k(    5) = (   0.0000000   0.0000000  -0.5000000), wk =   0.0117188
        k(    6) = (   0.0000000   0.1250000   0.1250000), wk =   0.0234375
        k(    7) = (   0.0000000   0.1250000   0.2500000), wk =   0.0468750
        k(    8) = (   0.0000000   0.1250000   0.3750000), wk =   0.0468750
        k(    9) = (   0.0000000   0.1250000  -0.5000000), wk =   0.0468750
        k(   10) = (   0.0000000   0.2500000   0.2500000), wk =   0.0234375
        k(   11) = (   0.0000000   0.2500000   0.3750000), wk =   0.0468750
        k(   12) = (   0.0000000   0.2500000  -0.5000000), wk =   0.0468750
        k(   13) = (   0.0000000   0.3750000   0.3750000), wk =   0.0234375
        k(   14) = (   0.0000000   0.3750000  -0.5000000), wk =   0.0468750
        k(   15) = (   0.0000000  -0.5000000  -0.5000000), wk =   0.0117188
        k(   16) = (   0.1250000   0.1250000   0.1250000), wk =   0.0078125
        k(   17) = (   0.1250000   0.1250000   0.2500000), wk =   0.0234375
        k(   18) = (   0.1250000   0.1250000   0.3750000), wk =   0.0234375
        k(   19) = (   0.1250000   0.1250000  -0.5000000), wk =   0.0234375
        k(   20) = (   0.1250000   0.2500000   0.2500000), wk =   0.0234375
        k(   21) = (   0.1250000   0.2500000   0.3750000), wk =   0.0468750
        k(   22) = (   0.1250000   0.2500000  -0.5000000), wk =   0.0468750
        k(   23) = (   0.1250000   0.3750000   0.3750000), wk =   0.0234375
        k(   24) = (   0.1250000   0.3750000  -0.5000000), wk =   0.0468750
        k(   25) = (   0.1250000  -0.5000000  -0.5000000), wk =   0.0234375
        k(   26) = (   0.2500000   0.2500000   0.2500000), wk =   0.0078125
        k(   27) = (   0.2500000   0.2500000   0.3750000), wk =   0.0234375
        k(   28) = (   0.2500000   0.2500000  -0.5000000), wk =   0.0234375
        k(   29) = (   0.2500000   0.3750000   0.3750000), wk =   0.0234375
        k(   30) = (   0.2500000   0.3750000  -0.5000000), wk =   0.0468750
        k(   31) = (   0.2500000  -0.5000000  -0.5000000), wk =   0.0234375
        k(   32) = (   0.3750000   0.3750000   0.3750000), wk =   0.0078125
        k(   33) = (   0.3750000   0.3750000  -0.5000000), wk =   0.0234375
        k(   34) = (   0.3750000  -0.5000000  -0.5000000), wk =   0.0234375
        k(   35) = (  -0.5000000  -0.5000000  -0.5000000), wk =   0.0039062
        k(   36) = (  -0.1250000   0.0000000   0.1250000), wk =   0.0234375
        k(   37) = (  -0.1250000   0.0000000   0.2500000), wk =   0.0468750
        k(   38) = (  -0.1250000   0.0000000   0.3750000), wk =   0.0468750
        k(   39) = (  -0.2500000   0.0000000   0.2500000), wk =   0.0234375
        k(   40) = (  -0.2500000   0.0000000   0.3750000), wk =   0.0468750
        k(   41) = (  -0.3750000   0.0000000   0.3750000), wk =   0.0234375
        k(   42) = (   0.1250000  -0.1250000   0.1250000), wk =   0.0234375
        k(   43) = (   0.1250000  -0.1250000   0.2500000), wk =   0.0468750
        k(   44) = (  -0.2500000   0.1250000   0.1250000), wk =   0.0234375
        k(   45) = (   0.1250000  -0.1250000   0.3750000), wk =   0.0468750
        k(   46) = (  -0.3750000   0.1250000   0.1250000), wk =   0.0234375
        k(   47) = (   0.1250000  -0.1250000  -0.5000000), wk =   0.0234375
        k(   48) = (   0.2500000  -0.1250000   0.2500000), wk =   0.0234375
        k(   49) = (  -0.2500000   0.1250000   0.2500000), wk =   0.0468750
        k(   50) = (   0.2500000  -0.1250000   0.3750000), wk =   0.0468750
        k(   51) = (  -0.2500000   0.1250000   0.3750000), wk =   0.0468750
        k(   52) = (  -0.3750000   0.2500000   0.1250000), wk =   0.0468750
        k(   53) = (   0.2500000  -0.1250000  -0.5000000), wk =   0.0468750
        k(   54) = (   0.3750000  -0.1250000   0.3750000), wk =   0.0234375
        k(   55) = (  -0.3750000   0.1250000   0.3750000), wk =   0.0468750
        k(   56) = (   0.3750000  -0.1250000  -0.5000000), wk =   0.0468750
        k(   57) = (   0.2500000  -0.2500000   0.2500000), wk =   0.0234375
        k(   58) = (   0.2500000  -0.2500000   0.3750000), wk =   0.0468750
        k(   59) = (  -0.3750000   0.2500000   0.2500000), wk =   0.0234375
        k(   60) = (   0.2500000  -0.2500000  -0.5000000), wk =   0.0234375
        k(   61) = (   0.3750000  -0.2500000   0.3750000), wk =   0.0234375
        k(   62) = (  -0.3750000   0.2500000   0.3750000), wk =   0.0468750
        k(   63) = (   0.3750000  -0.2500000  -0.5000000), wk =   0.0468750
        k(   64) = (   0.3750000  -0.3750000   0.3750000), wk =   0.0234375
        k(   65) = (   0.3750000  -0.3750000  -0.5000000), wk =   0.0234375

     Dense  grid:    69791 G-vectors     FFT dimensions: (  54,  54,  54)

     Smooth grid:    30095 G-vectors     FFT dimensions: (  40,  40,  40)

     Dynamical RAM for                 wfc:       0.19 MB

     Dynamical RAM for     wfc (w. buffer):      12.61 MB

     Dynamical RAM for           str. fact:       0.18 MB

     Dynamical RAM for           local pot:       0.00 MB

     Dynamical RAM for          nlocal pot:       0.61 MB

     Dynamical RAM for                qrad:       0.59 MB

     Dynamical RAM for          rho,v,vnew:       1.13 MB

     Dynamical RAM for               rhoin:       0.38 MB

     Dynamical RAM for            rho*nmix:       2.84 MB

     Dynamical RAM for           G-vectors:       0.70 MB

     Dynamical RAM for          h,s,v(r/c):       0.29 MB

     Dynamical RAM for          <psi|beta>:       0.02 MB

     Dynamical RAM for                 psi:       0.76 MB

     Dynamical RAM for                hpsi:       0.76 MB

     Dynamical RAM for                spsi:       0.76 MB

     Dynamical RAM for      wfcinit/wfcrot:       0.64 MB

     Dynamical RAM for           addusdens:       9.05 MB

     Estimated static dynamical RAM per process >      20.39 MB

     Estimated max dynamical RAM per process >      29.45 MB

     Estimated total dynamical RAM >     176.68 MB

     Check: negative core charge=   -0.000003

     Initial potential from superposition of free atoms

     starting charge   31.99967, renormalised to   32.00000
     Starting wfcs are   32 randomized atomic wfcs

     total cpu time spent up to now is        2.2 secs

     Self-consistent Calculation

     iteration #  1     ecut=    80.00 Ry     beta= 0.70
     Davidson diagonalization with overlap
     ethr =  1.00E-02,  avg # of iterations =  2.7

     total cpu time spent up to now is        6.1 secs

     total energy              =     -99.31492223 Ry
     Harris-Foulkes estimate   =     -99.51566492 Ry
     estimated scf accuracy    <       0.45529595 Ry

     iteration #  2     ecut=    80.00 Ry     beta= 0.70
     Davidson diagonalization with overlap
     ethr =  1.42E-03,  avg # of iterations =  1.7

     total cpu time spent up to now is        8.8 secs

     total energy              =     -99.34781468 Ry
     Harris-Foulkes estimate   =     -99.34837040 Ry
     estimated scf accuracy    <       0.00948436 Ry

     iteration #  3     ecut=    80.00 Ry     beta= 0.70
     Davidson diagonalization with overlap
     ethr =  2.96E-05,  avg # of iterations =  7.0

     total cpu time spent up to now is       13.4 secs

     total energy              =     -99.34924054 Ry
     Harris-Foulkes estimate   =     -99.34918837 Ry
     estimated scf accuracy    <       0.00027830 Ry

     iteration #  4     ecut=    80.00 Ry     beta= 0.70
     Davidson diagonalization with overlap
     ethr =  8.70E-07,  avg # of iterations =  3.3

     total cpu time spent up to now is       16.9 secs

     total energy              =     -99.34927271 Ry
     Harris-Foulkes estimate   =     -99.34928231 Ry
     estimated scf accuracy    <       0.00001978 Ry

     iteration #  5     ecut=    80.00 Ry     beta= 0.70
     Davidson diagonalization with overlap
     ethr =  6.18E-08,  avg # of iterations =  2.0

     total cpu time spent up to now is       20.2 secs

     total energy              =     -99.34927784 Ry
     Harris-Foulkes estimate   =     -99.34927815 Ry
     estimated scf accuracy    <       0.00000116 Ry

     iteration #  6     ecut=    80.00 Ry     beta= 0.70
     Davidson diagonalization with overlap
     ethr =  3.62E-09,  avg # of iterations =  2.1

     total cpu time spent up to now is       23.6 secs

     End of self-consistent calculation

          k = 0.0000 0.0000 0.0000 (  3791 PWs)   bands (ev):

    -8.2045   0.3245   0.3577   0.3577   0.4416   0.4416   0.4740   6.7884
     6.7884   6.8127   6.8615   6.8824   6.8824  12.8903  13.1201  13.1201
    17.6451  17.7209  17.7209  17.8806

     occupation numbers 
     1.0000   1.0000   1.0000   1.0000   1.0000   1.0000   1.0000   1.0000
     1.0000   1.0000   1.0000   1.0000   1.0000   1.0000   1.0000   1.0000
     0.0000   0.0000   0.0000   0.0000

          k = 0.0000 0.0000 0.1250 (  3783 PWs)   bands (ev):

    -8.0621  -1.5004   0.4447   0.4450   0.5314   0.5317   2.4323   6.5036
     6.5041   6.5626   6.5664   6.9553   7.0010  12.4018  12.5656  12.7272
    17.3347  18.2720  18.2942  18.4153

     occupation numbers 
     1.0000   1.0000   1.0000   1.0000   1.0000   1.0000   1.0000   1.0000
     1.0000   1.0000   1.0000   1.0000   1.0000   1.0000   1.0000   1.0000
     0.0000   0.0000   0.0000   0.0000

          k = 0.0000 0.0000 0.2500 (  3771 PWs)   bands (ev):

    -7.6359  -3.2125   0.6801   0.6804   0.7759   0.7760   4.5238   5.8137
     5.8141   5.8675   5.8682   7.3656   7.4132  11.2838  11.3988  11.7384
    17.1671  18.1939  19.6743  19.8060

     occupation numbers 
     1.0000   1.0000   1.0000   1.0000   1.0000   1.0000   1.0000   1.0000
     1.0000   1.0000   1.0000   1.0000   1.0000   1.0000   1.0000   1.0000
     0.0000   0.0000   0.0000   0.0000

          k = 0.0000 0.0000 0.3750 (  3764 PWs)   bands (ev):

    -6.9298  -4.7024   0.9654   0.9657   1.0753   1.0754   5.1224   5.1253
     5.1775   5.1808   6.5973   8.0410   8.0895  10.0471  10.1513  10.3186
    17.2279  17.8212  21.2975  21.8441

     occupation numbers 
     1.0000   1.0000   1.0000   1.0000   1.0000   1.0000   1.0000   1.0000
     1.0000   1.0000   1.0000   1.0000   1.0000   1.0000   1.0000   1.0000
     0.0000   0.0000   0.0000   0.0000

          k = 0.0000 0.0000-0.5000 (  3764 PWs)   bands (ev):

    -6.0045  -5.8911   1.1060   1.1063   1.2247   1.2250   4.8243   4.8273
     4.8854   4.8877   8.5243   8.5538   8.9115   8.9129   9.0226   9.1247
    17.4401  17.4978  23.1644  23.2081

     occupation numbers 
     1.0000   1.0000   1.0000   1.0000   1.0000   1.0000   1.0000   1.0000
     1.0000   1.0000   1.0000   1.0000   1.0000   1.0000   1.0000   1.0000
     0.0000   0.0000   0.0000   0.0000

          k = 0.0000 0.1250 0.1250 (  3795 PWs)   bands (ev):

    -7.9199  -1.3887  -1.3870   0.4979   0.6337   2.4743   2.4754   5.5700
     6.6216   6.6238   6.7460   6.7480   7.0992  11.5610  12.0100  12.9391
    17.9010  17.9360  18.0837  18.8173

     occupation numbers 
     1.0000   1.0000   1.0000   1.0000   1.0000   1.0000   1.0000   1.0000
     1.0000   1.0000   1.0000   1.0000   1.0000   1.0000   1.0000   1.0000
     0.0000   0.0000   0.0000   0.0000

          k = 0.0000 0.1250 0.2500 (  3765 PWs)   bands (ev):

    -7.4944  -3.0865  -1.0604   0.5460   0.9744   2.5300   4.4476   4.6355
     5.8305   6.2441   6.9891   7.0602   7.2816  10.3190  10.8982  12.3479
    17.7741  18.7284  18.8373  19.4864

     occupation numbers 
     1.0000   1.0000   1.0000   1.0000   1.0000   1.0000   1.0000   1.0000
     1.0000   1.0000   1.0000   1.0000   1.0000   1.0000   1.0000   1.0000
     0.0000   0.0000   0.0000   0.0000

          k = 0.0000 0.1250 0.3750 (  3761 PWs)   bands (ev):

    -6.7897  -4.5690  -0.5633   0.4421   1.4570   2.4251   4.1110   4.9423
     5.9264   6.2586   6.5829   7.6698   8.2265   9.0019   9.6888  11.1535
    17.8401  18.3941  20.4949  21.5574

     occupation numbers 
     1.0000   1.0000   1.0000   1.0000   1.0000   1.0000   1.0000   1.0000
     1.0000   1.0000   1.0000   1.0000   1.0000   1.0000   1.0000   1.0000
     0.0000   0.0000   0.0000   0.0000

          k = 0.0000 0.1250-0.5000 (  3762 PWs)   bands (ev):

    -5.8668  -5.7533  -0.0416   0.0613   1.9789   2.0447   4.2589   4.2915
     6.0569   6.1252   7.6616   7.7578   8.5537   8.6013   9.5796   9.6954
    18.0381  18.0996  22.3767  22.5362

     occupation numbers 
     1.0000   1.0000   1.0000   1.0000   1.0000   1.0000   1.0000   1.0000
     1.0000   1.0000   1.0000   1.0000   1.0000   1.0000   1.0000   1.0000
     0.0000   0.0000   0.0000   0.0000

          k = 0.0000 0.2500 0.2500 (  3748 PWs)   bands (ev):

    -7.0713  -2.7140  -2.7129   0.1917   1.3963   3.8477   4.1306   4.1428
     6.1492   6.1502   7.1644   7.1667   7.7860   9.0497   9.8576  12.3624
    18.7263  19.3372  19.3449  19.6794

     occupation numbers 
     1.0000   1.0000   1.0000   1.0000   1.0000   1.0000   1.0000   1.0000
     1.0000   1.0000   1.0000   1.0000   1.0000   1.0000   1.0000   1.0000
     0.0000   0.0000   0.0000   0.0000

          k = 0.0000 0.2500 0.3750 (  3755 PWs)   bands (ev):

    -6.3711  -4.1718  -2.1155  -0.4840   1.9836   3.5072   3.7978   5.1536
     5.4544   6.7547   7.2964   7.7738   7.9347   8.5550   8.7221  11.5901
    19.3840  19.6925  19.7672  21.4337

     occupation numbers 
     1.0000   1.0000   1.0000   1.0000   1.0000   1.0000   1.0000   1.0000
     1.0000   1.0000   1.0000   1.0000   1.0000   1.0000   1.0000   1.0000
     0.0000   0.0000   0.0000   0.0000

          k = 0.0000 0.2500-0.5000 (  3760 PWs)   bands (ev):

    -5.4562  -5.3422  -1.3898  -1.2775   2.6983   2.7600   4.2902   4.3289
     6.5494   6.6365   7.5701   7.5892   7.6831   7.7164  10.1362  10.2585
    19.5295  19.6005  21.2877  21.4344

     occupation numbers 
     1.0000   1.0000   1.0000   1.0000   1.0000   1.0000   1.0000   1.0000
     1.0000   1.0000   1.0000   1.0000   1.0000   1.0000   1.0000   1.0000
     0.0000   0.0000   0.0000   0.0000

          k = 0.0000 0.3750 0.3750 (  3764 PWs)   bands (ev):

    -5.6795  -3.5238  -3.5228  -1.5864   2.6554   4.0670   4.4845   4.4977
     5.7074   5.7137   6.5646   7.5687   8.8187   8.9204   8.9364  11.3784
    19.7725  21.0531  21.4178  21.4194

     occupation numbers 
     1.0000   1.0000   1.0000   1.0000   1.0000   1.0000   1.0000   1.0000
     1.0000   1.0000   1.0000   1.0000   1.0000   1.0000   1.0000   1.0000
     0.0000   0.0000   0.0000   0.0000

          k = 0.0000 0.3750-0.5000 (  3754 PWs)   bands (ev):

    -4.7803  -4.6658  -2.7003  -2.5855   3.4773   3.5411   4.7482   4.7918
     5.4335   5.5129   6.5175   6.5663   9.0525   9.1471  10.3445  10.4682
    20.6949  20.8312  21.3778  21.4423

     occupation numbers 
     1.0000   1.0000   1.0000   1.0000   1.0000   1.0000   1.0000   1.0000
     1.0000   1.0000   1.0000   1.0000   1.0000   1.0000   1.0000   1.0000
     0.0000   0.0000   0.0000   0.0000

          k = 0.0000-0.5000-0.5000 (  3724 PWs)   bands (ev):

    -3.9124  -3.7948  -3.7921  -3.6749   4.3668   4.4052   4.4485   4.4602
     5.4908   5.5454   5.5641   5.6143   9.9669  10.0332  10.0646  10.2346
    20.7840  20.8795  20.9263  21.0455

     occupation numbers 
     1.0000   1.0000   1.0000   1.0000   1.0000   1.0000   1.0000   1.0000
     1.0000   1.0000   1.0000   1.0000   1.0000   1.0000   1.0000   1.0000
     0.0000   0.0000   0.0000   0.0000

          k = 0.1250 0.1250 0.1250 (  3791 PWs)   bands (ev):

    -7.7779  -1.2814  -1.2798  -1.2798   2.4818   2.4818   2.4833   5.7692
     5.7699   5.7699   7.2326   7.2326   7.2363  10.5702  12.4585  12.4585
    18.0264  18.0363  18.0363  19.4042

     occupation numbers 
     1.0000   1.0000   1.0000   1.0000   1.0000   1.0000   1.0000   1.0000
     1.0000   1.0000   1.0000   1.0000   1.0000   1.0000   1.0000   1.0000
     0.0000   0.0000   0.0000   0.0000

          k = 0.1250 0.1250 0.2500 (  3751 PWs)   bands (ev):

    -7.3532  -2.9623  -0.9771  -0.9762   2.3826   2.3838   4.2474   4.9894
     4.9905   6.4759   7.1889   7.1902   7.6379   9.2602  11.4110  12.1499
    18.0588  18.8947  18.9017  19.1860

     occupation numbers 
     1.0000   1.0000   1.0000   1.0000   1.0000   1.0000   1.0000   1.0000
     1.0000   1.0000   1.0000   1.0000   1.0000   1.0000   1.0000   1.0000
     0.0000   0.0000   0.0000   0.0000

          k = 0.1250 0.1250 0.3750 (  3757 PWs)   bands (ev):

    -6.6500  -4.4364  -0.5654  -0.5647   2.0191   2.0199   4.6948   4.6998
     5.6456   6.8200   6.8209   7.7911   7.9593   8.2942  10.2507  11.0847
    18.2152  18.8352  20.5645  20.5728

     occupation numbers 
     1.0000   1.0000   1.0000   1.0000   1.0000   1.0000   1.0000   1.0000
     1.0000   1.0000   1.0000   1.0000   1.0000   1.0000   1.0000   1.0000
     0.0000   0.0000   0.0000   0.0000

          k = 0.1250 0.1250-0.5000 (  3764 PWs)   bands (ev):

    -5.7296  -5.6159  -0.3251  -0.3250   1.7406   1.7408   4.7203   4.7240
     6.5823   6.5890   6.7116   6.8423   9.0749   9.2898   9.4325   9.5751
    18.4461  18.5324  22.2266  22.2288

     occupation numbers 
     1.0000   1.0000   1.0000   1.0000   1.0000   1.0000   1.0000   1.0000
     1.0000   1.0000   1.0000   1.0000   1.0000   1.0000   1.0000   1.0000
     0.0000   0.0000   0.0000   0.0000

          k = 0.1250 0.2500 0.2500 (  3755 PWs)   bands (ev):

    -6.9310  -2.5978  -2.5969  -0.7903   1.8662   3.5523   3.5524   4.6323
     6.1199   6.1223   7.6755   7.6781   7.9092   7.9119  10.7741  12.0694
    18.8388  19.0627  19.0632  19.9990

     occupation numbers 
     1.0000   1.0000   1.0000   1.0000   1.0000   1.0000   1.0000   1.0000
     1.0000   1.0000   1.0000   1.0000   1.0000   1.0000   1.0000   1.0000
     0.0000   0.0000   0.0000   0.0000

          k = 0.1250 0.2500 0.3750 (  3763 PWs)   bands (ev):

    -6.2324  -4.0427  -2.0232  -0.8008   1.4547   2.6140   4.4929   4.8657
     5.8490   6.6031   7.4955   7.6380   8.0666   8.6418   9.7244  11.4017
    19.3209  19.7977  19.9458  20.7545

     occupation numbers 
     1.0000   1.0000   1.0000   1.0000   1.0000   1.0000   1.0000   1.0000
     1.0000   1.0000   1.0000   1.0000   1.0000   1.0000   1.0000   1.0000
     0.0000   0.0000   0.0000   0.0000

          k = 0.1250 0.2500-0.5000 (  3762 PWs)   bands (ev):

    -5.3207  -5.2065  -1.3696  -1.2853   1.7433   1.8277   5.3259   5.3868
     5.4294   5.5526   7.8029   7.8703   8.5662   8.7157  10.0313  10.1491
    19.5821  19.6901  21.3628  21.4554

     occupation numbers 
     1.0000   1.0000   1.0000   1.0000   1.0000   1.0000   1.0000   1.0000
     1.0000   1.0000   1.0000   1.0000   1.0000   1.0000   1.0000   1.0000
     0.0000   0.0000   0.0000   0.0000

          k = 0.1250 0.3750 0.3750 (  3766 PWs)   bands (ev):

    -5.5429  -3.4033  -3.4025  -1.5799   1.6064   3.3339   3.3346   5.3031
     5.3700   6.8308   6.8342   8.7390   8.9163   9.0200   9.0262  11.2747
    19.8894  20.9830  21.0152  21.1096

     occupation numbers 
     1.0000   1.0000   1.0000   1.0000   1.0000   1.0000   1.0000   1.0000
     1.0000   1.0000   1.0000   1.0000   1.0000   1.0000   1.0000   1.0000
     0.0000   0.0000   0.0000   0.0000

          k = 0.1250 0.3750-0.5000 (  3756 PWs)   bands (ev):

    -4.6489  -4.5337  -2.6019  -2.4948   2.2645   2.3766   4.1680   4.2851
     6.0180   6.0991   7.7024   7.8490   9.1411   9.2305  10.3234  10.4431
    20.7957  20.9075  21.1764  21.3120

     occupation numbers 
     1.0000   1.0000   1.0000   1.0000   1.0000   1.0000   1.0000   1.0000
     1.0000   1.0000   1.0000   1.0000   1.0000   1.0000   1.0000   1.0000
     0.0000   0.0000   0.0000   0.0000

          k = 0.1250-0.5000-0.5000 (  3748 PWs)   bands (ev):

    -3.7905  -3.6731  -3.6700  -3.5528   3.0451   3.1329   3.1760   3.2713
     6.7641   6.8448   6.8897   7.0055   9.9962  10.0623  10.0930  10.2647
    20.8584  20.9521  21.0018  21.1216

     occupation numbers 
     1.0000   1.0000   1.0000   1.0000   1.0000   1.0000   1.0000   1.0000
     1.0000   1.0000   1.0000   1.0000   1.0000   1.0000   1.0000   1.0000
     0.0000   0.0000   0.0000   0.0000

          k = 0.2500 0.2500 0.2500 (  3749 PWs)   bands (ev):

    -6.5115  -2.2673  -2.2662  -2.2662   2.4079   2.4079   2.4089   6.3042
     6.3225   6.3225   6.4973   8.2709   8.2709   8.2774  11.3602  11.3602
    19.1335  19.1362  19.1362  20.7719

     occupation numbers 
     1.0000   1.0000   1.0000   1.0000   1.0000   1.0000   1.0000   1.0000
     1.0000   1.0000   1.0000   1.0000   1.0000   1.0000   1.0000   1.0000
     0.0000   0.0000   0.0000   0.0000

          k = 0.2500 0.2500 0.3750 (  3759 PWs)   bands (ev):

    -5.8184  -3.6621  -1.8077  -1.8073   1.3527   1.3528   3.1185   5.1461
     6.6041   6.6056   8.1616   8.4693   8.4719   8.8544  10.4804  11.0533
    19.5624  20.0968  20.0997  20.4571

     occupation numbers 
     1.0000   1.0000   1.0000   1.0000   1.0000   1.0000   1.0000   1.0000
     1.0000   1.0000   1.0000   1.0000   1.0000   1.0000   1.0000   1.0000
     0.0000   0.0000   0.0000   0.0000

          k = 0.2500 0.2500-0.5000 (  3758 PWs)   bands (ev):

    -4.9180  -4.8031  -1.5317  -1.5313   0.8629   0.8638   3.9649   4.0819
     6.7646   6.7656   8.4442   8.4494   9.5032   9.7225   9.7957   9.9219
    19.9638  20.0954  21.3606  21.3637

     occupation numbers 
     1.0000   1.0000   1.0000   1.0000   1.0000   1.0000   1.0000   1.0000
     1.0000   1.0000   1.0000   1.0000   1.0000   1.0000   1.0000   1.0000
     0.0000   0.0000   0.0000   0.0000

          k = 0.2500 0.3750 0.3750 (  3749 PWs)   bands (ev):

    -5.1369  -3.0589  -3.0584  -1.7776   0.6264   1.8668   1.8676   3.8117
     7.1849   8.1405   8.1427   9.1880   9.2179   9.2502  10.0166  10.9995
    20.2076  20.5295  20.5339  21.1385

     occupation numbers 
     1.0000   1.0000   1.0000   1.0000   1.0000   1.0000   1.0000   1.0000
     1.0000   1.0000   1.0000   1.0000   1.0000   1.0000   1.0000   1.0000
     0.0000   0.0000   0.0000   0.0000

          k = 0.2500 0.3750-0.5000 (  3756 PWs)   bands (ev):

    -4.2612  -4.1449  -2.3628  -2.2801   0.8743   0.9615   2.6494   2.7649
     7.7060   7.7771   9.1119   9.2520   9.4066   9.4590  10.2462  10.3645
    20.8837  21.0173  21.0868  21.1241

     occupation numbers 
     1.0000   1.0000   1.0000   1.0000   1.0000   1.0000   1.0000   1.0000
     1.0000   1.0000   1.0000   1.0000   1.0000   1.0000   1.0000   1.0000
     0.0000   0.0000   0.0000   0.0000

          k = 0.2500-0.5000-0.5000 (  3752 PWs)   bands (ev):

    -3.4406  -3.3248  -3.3200  -3.2031   1.5226   1.6157   1.6507   1.7474
     8.4057   8.4719   8.5392   8.6545  10.0685  10.1353  10.1640  10.3392
    21.0455  21.1343  21.1962  21.3189

     occupation numbers 
     1.0000   1.0000   1.0000   1.0000   1.0000   1.0000   1.0000   1.0000
     1.0000   1.0000   1.0000   1.0000   1.0000   1.0000   1.0000   1.0000
     0.0000   0.0000   0.0000   0.0000

          k = 0.3750 0.3750 0.3750 (  3752 PWs)   bands (ev):

    -4.4737  -2.5753  -2.5753  -2.5746   0.6695   0.6699   0.6699   2.4597
     8.8689   8.8689   8.8707   9.6093   9.6093   9.6288  10.5895  10.5895
    20.6542  20.6542  20.6599  21.3977

     occupation numbers 
     1.0000   1.0000   1.0000   1.0000   1.0000   1.0000   1.0000   1.0000
     1.0000   1.0000   1.0000   1.0000   1.0000   1.0000   1.0000   1.0000
     0.0000   0.0000   0.0000   0.0000

          k = 0.3750 0.3750-0.5000 (  3760 PWs)   bands (ev):

    -3.6446  -3.5259  -2.2796  -2.2762   0.1281   0.1307   1.3231   1.4378
     9.0716   9.0722   9.7892   9.8097  10.0024  10.0774  10.2194  10.2261
    21.0098  21.1673  21.2862  21.3144

     occupation numbers 
     1.0000   1.0000   1.0000   1.0000   1.0000   1.0000   1.0000   1.0000
     1.0000   1.0000   1.0000   1.0000   1.0000   1.0000   1.0000   1.0000
     0.0000   0.0000   0.0000   0.0000

          k = 0.3750-0.5000-0.5000 (  3768 PWs)   bands (ev):

    -2.9433  -2.8338  -2.8278  -2.7094   0.2971   0.3960   0.4228   0.5049
     9.6766   9.7192   9.8009   9.9070  10.1434  10.2300  10.2456  10.4187
    21.2188  21.2925  21.4066  21.4531

     occupation numbers 
     1.0000   1.0000   1.0000   1.0000   1.0000   1.0000   1.0000   1.0000
     1.0000   1.0000   1.0000   1.0000   1.0000   1.0000   1.0000   1.0000
     0.0000   0.0000   0.0000   0.0000

          k =-0.5000-0.5000-0.5000 (  3840 PWs)   bands (ev):

    -2.6284  -2.5316  -2.5316  -2.4029  -0.2577  -0.1289  -0.1289  -0.0796
    10.1749  10.1749  10.1942  10.2031  10.2031  10.3554  10.4664  10.4664
    21.2350  21.2354  21.3104  21.4718

     occupation numbers 
     1.0000   1.0000   1.0000   1.0000   1.0000   1.0000   1.0000   1.0000
     1.0000   1.0000   1.0000   1.0000   1.0000   1.0000   1.0000   1.0000
     0.0000   0.0000   0.0000   0.0000

          k =-0.1250 0.0000 0.1250 (  3795 PWs)   bands (ev):

    -7.9198  -1.4186  -1.3500   0.4527   0.6782   2.4275   2.4910   5.6166
     6.6249   6.6366   6.7027   6.8047   7.0520  11.7020  11.9773  12.8031
    17.8517  17.9521  18.0474  18.9348

     occupation numbers 
     1.0000   1.0000   1.0000   1.0000   1.0000   1.0000   1.0000   1.0000
     1.0000   1.0000   1.0000   1.0000   1.0000   1.0000   1.0000   1.0000
     0.0000   0.0000   0.0000   0.0000

          k =-0.1250 0.0000 0.2500 (  3765 PWs)   bands (ev):

    -7.4944  -3.0853  -1.0521   0.4994   1.0218   2.4960   4.4163   4.6798
     5.8294   6.2708   6.9631   7.0445   7.3161  10.4377  10.8773  12.2191
    17.7588  18.7655  18.7991  19.4697

     occupation numbers 
     1.0000   1.0000   1.0000   1.0000   1.0000   1.0000   1.0000   1.0000
     1.0000   1.0000   1.0000   1.0000   1.0000   1.0000   1.0000   1.0000
     0.0000   0.0000   0.0000   0.0000

          k =-0.1250 0.0000 0.3750 (  3761 PWs)   bands (ev):

    -6.7897  -4.5685  -0.5482   0.4012   1.5088   2.3744   4.1494   4.9357
     5.9716   6.1908   6.5297   7.6801   8.2963   9.1079   9.6726  11.0395
    17.8229  18.4237  20.4347  21.5597

     occupation numbers 
     1.0000   1.0000   1.0000   1.0000   1.0000   1.0000   1.0000   1.0000
     1.0000   1.0000   1.0000   1.0000   1.0000   1.0000   1.0000   1.0000
     0.0000   0.0000   0.0000   0.0000

          k =-0.2500 0.0000 0.2500 (  3748 PWs)   bands (ev):

    -7.0712  -2.7418  -2.6778   0.1519   1.4461   3.8807   4.0635   4.0980
     6.1284   6.1804   7.1400   7.3100   7.7327   9.1543   9.8403  12.2325
    18.6716  19.2681  19.3620  19.8036

     occupation numbers 
     1.0000   1.0000   1.0000   1.0000   1.0000   1.0000   1.0000   1.0000
     1.0000   1.0000   1.0000   1.0000   1.0000   1.0000   1.0000   1.0000
     0.0000   0.0000   0.0000   0.0000

          k =-0.2500 0.0000 0.3750 (  3755 PWs)   bands (ev):

    -6.3711  -4.1707  -2.1080  -0.5093   2.0377   3.4452   3.8162   5.1615
     5.3700   6.7641   7.3571   7.8674   7.8782   8.6173   8.7342  11.4731
    19.3515  19.6303  19.8393  21.4010

     occupation numbers 
     1.0000   1.0000   1.0000   1.0000   1.0000   1.0000   1.0000   1.0000
     1.0000   1.0000   1.0000   1.0000   1.0000   1.0000   1.0000   1.0000
     0.0000   0.0000   0.0000   0.0000

          k =-0.3750 0.0000 0.3750 (  3764 PWs)   bands (ev):

    -5.6799  -3.5504  -3.4897  -1.5996   2.7133   4.0713   4.4048   4.4403
     5.6780   5.7532   6.6494   7.5562   8.7664   8.9064   9.0995  11.2677
    19.7129  21.1443  21.3235  21.4380

     occupation numbers 
     1.0000   1.0000   1.0000   1.0000   1.0000   1.0000   1.0000   1.0000
     1.0000   1.0000   1.0000   1.0000   1.0000   1.0000   1.0000   1.0000
     0.0000   0.0000   0.0000   0.0000

          k = 0.1250-0.1250 0.1250 (  3791 PWs)   bands (ev):

    -7.7779  -1.3260  -1.2781  -1.2243   2.4105   2.4639   2.4960   5.7874
     5.8371   5.8558   7.1663   7.1846   7.2484  10.6896  12.2951  12.4753
    17.9080  17.9863  18.1007  19.3664

     occupation numbers 
     1.0000   1.0000   1.0000   1.0000   1.0000   1.0000   1.0000   1.0000
     1.0000   1.0000   1.0000   1.0000   1.0000   1.0000   1.0000   1.0000
     0.0000   0.0000   0.0000   0.0000

          k = 0.1250-0.1250 0.2500 (  3751 PWs)   bands (ev):

    -7.3532  -2.9617  -1.0099  -0.9257   2.3049   2.3647   4.2098   5.0295
     5.0967   6.5676   7.1253   7.1891   7.5869   9.3574  11.3159  12.1289
    18.0142  18.7934  18.9403  19.1880

     occupation numbers 
     1.0000   1.0000   1.0000   1.0000   1.0000   1.0000   1.0000   1.0000
     1.0000   1.0000   1.0000   1.0000   1.0000   1.0000   1.0000   1.0000
     0.0000   0.0000   0.0000   0.0000

          k =-0.2500 0.1250 0.1250 (  3751 PWs)   bands (ev):

    -7.3531  -2.9597  -0.9726  -0.9716   2.3493   2.3504   4.1702   5.0611
     5.0625   6.5609   7.1435   7.1542   7.6338   9.3676  11.4316  11.9840
    18.0308  18.8407  18.8465  19.2477

     occupation numbers 
     1.0000   1.0000   1.0000   1.0000   1.0000   1.0000   1.0000   1.0000
     1.0000   1.0000   1.0000   1.0000   1.0000   1.0000   1.0000   1.0000
     0.0000   0.0000   0.0000   0.0000

          k = 0.1250-0.1250 0.3750 (  3757 PWs)   bands (ev):

    -6.6500  -4.4362  -0.6053  -0.4949   1.9230   2.0009   4.7248   4.8322
     5.6028   6.7453   6.8147   7.8857   8.0562   8.2429  10.1737  11.0626
    18.1785  18.8309  20.4459  20.6007

     occupation numbers 
     1.0000   1.0000   1.0000   1.0000   1.0000   1.0000   1.0000   1.0000
     1.0000   1.0000   1.0000   1.0000   1.0000   1.0000   1.0000   1.0000
     0.0000   0.0000   0.0000   0.0000

          k =-0.3750 0.1250 0.1250 (  3757 PWs)   bands (ev):

    -6.6500  -4.4353  -0.5603  -0.5599   1.9931   1.9938   4.7477   4.7518
     5.5411   6.7835   6.7894   7.9239   8.0638   8.2844  10.2690  10.9314
    18.1886  18.8741  20.5043  20.5048

     occupation numbers 
     1.0000   1.0000   1.0000   1.0000   1.0000   1.0000   1.0000   1.0000
     1.0000   1.0000   1.0000   1.0000   1.0000   1.0000   1.0000   1.0000
     0.0000   0.0000   0.0000   0.0000

          k = 0.1250-0.1250-0.5000 (  3764 PWs)   bands (ev):

    -5.7297  -5.6161  -0.3743  -0.2379   1.6370   1.7410   4.7183   4.8540
     6.5091   6.5987   6.7367   6.8595   9.0569   9.1638   9.5059   9.6076
    18.4484  18.4856  22.0027  22.2573

     occupation numbers 
     1.0000   1.0000   1.0000   1.0000   1.0000   1.0000   1.0000   1.0000
     1.0000   1.0000   1.0000   1.0000   1.0000   1.0000   1.0000   1.0000
     0.0000   0.0000   0.0000   0.0000

          k = 0.2500-0.1250 0.2500 (  3755 PWs)   bands (ev):

    -6.9309  -2.5980  -2.5962  -0.7591   1.7679   3.5199   3.5221   4.7072
     6.2284   6.2311   7.5997   7.6005   7.9048   7.9878  10.6640  12.0960
    18.7918  19.0088  19.0492  19.9300

     occupation numbers 
     1.0000   1.0000   1.0000   1.0000   1.0000   1.0000   1.0000   1.0000
     1.0000   1.0000   1.0000   1.0000   1.0000   1.0000   1.0000   1.0000
     0.0000   0.0000   0.0000   0.0000

          k =-0.2500 0.1250 0.2500 (  3755 PWs)   bands (ev):

    -6.9309  -2.6266  -2.5592  -0.7892   1.8437   3.4607   3.5123   4.7063
     6.1756   6.2261   7.6145   7.7185   7.8547   7.9987  10.7576  11.9634
    18.7632  18.9661  19.0913  20.0775

     occupation numbers 
     1.0000   1.0000   1.0000   1.0000   1.0000   1.0000   1.0000   1.0000
     1.0000   1.0000   1.0000   1.0000   1.0000   1.0000   1.0000   1.0000
     0.0000   0.0000   0.0000   0.0000

          k = 0.2500-0.1250 0.3750 (  3763 PWs)   bands (ev):

    -6.2325  -4.0425  -2.0238  -0.7607   1.3553   2.5954   4.4722   4.9300
     5.9386   6.6701   7.5597   7.5851   8.0645   8.5836   9.6280  11.4259
    19.2669  19.7893  19.9003  20.6685

     occupation numbers 
     1.0000   1.0000   1.0000   1.0000   1.0000   1.0000   1.0000   1.0000
     1.0000   1.0000   1.0000   1.0000   1.0000   1.0000   1.0000   1.0000
     0.0000   0.0000   0.0000   0.0000

          k =-0.2500 0.1250 0.3750 (  3763 PWs)   bands (ev):

    -6.2326  -4.0421  -2.0103  -0.8042   1.4503   2.5277   4.4632   4.9342
     5.9145   6.6787   7.4897   7.6541   7.9950   8.6997   9.7076  11.3114
    19.2570  19.7211  19.9603  20.7232

     occupation numbers 
     1.0000   1.0000   1.0000   1.0000   1.0000   1.0000   1.0000   1.0000
     1.0000   1.0000   1.0000   1.0000   1.0000   1.0000   1.0000   1.0000
     0.0000   0.0000   0.0000   0.0000

          k =-0.3750 0.2500 0.1250 (  3763 PWs)   bands (ev):

    -6.2326  -4.0403  -2.0185  -0.8049   1.4522   2.5881   4.4092   4.9178
     5.8544   6.6881   7.5465   7.6608   8.0214   8.6833   9.7141  11.2935
    19.2807  19.7404  20.0033  20.6819

     occupation numbers 
     1.0000   1.0000   1.0000   1.0000   1.0000   1.0000   1.0000   1.0000
     1.0000   1.0000   1.0000   1.0000   1.0000   1.0000   1.0000   1.0000
     0.0000   0.0000   0.0000   0.0000

          k = 0.2500-0.1250-0.5000 (  3762 PWs)   bands (ev):

    -5.3208  -5.2070  -1.3796  -1.2533   1.6880   1.7984   5.3423   5.4113
     5.5248   5.5739   7.7665   7.8551   8.5597   8.6654  10.0373  10.1597
    19.5795  19.6130  21.2470  21.4570

     occupation numbers 
     1.0000   1.0000   1.0000   1.0000   1.0000   1.0000   1.0000   1.0000
     1.0000   1.0000   1.0000   1.0000   1.0000   1.0000   1.0000   1.0000
     0.0000   0.0000   0.0000   0.0000

          k = 0.3750-0.1250 0.3750 (  3766 PWs)   bands (ev):

    -5.5435  -3.4036  -3.4022  -1.5587   1.5328   3.3206   3.3231   5.3609
     5.4310   6.8766   6.8861   8.6743   8.8999   8.9742   8.9908  11.3001
    19.8747  20.9040  20.9146  20.9951

     occupation numbers 
     1.0000   1.0000   1.0000   1.0000   1.0000   1.0000   1.0000   1.0000
     1.0000   1.0000   1.0000   1.0000   1.0000   1.0000   1.0000   1.0000
     0.0000   0.0000   0.0000   0.0000

          k =-0.3750 0.1250 0.3750 (  3766 PWs)   bands (ev):

    -5.5437  -3.4309  -3.3670  -1.5855   1.6134   3.2586   3.3139   5.3552
     5.4462   6.7944   6.8700   8.7406   8.8600   8.9785   9.1682  11.1783
    19.8206  20.8828  20.9945  21.1340

     occupation numbers 
     1.0000   1.0000   1.0000   1.0000   1.0000   1.0000   1.0000   1.0000
     1.0000   1.0000   1.0000   1.0000   1.0000   1.0000   1.0000   1.0000
     0.0000   0.0000   0.0000   0.0000

          k = 0.3750-0.1250-0.5000 (  3756 PWs)   bands (ev):

    -4.6490  -4.5351  -2.6037  -2.4841   2.2324   2.3444   4.1878   4.3141
     6.0249   6.1757   7.6989   7.7974   9.1230   9.2168  10.3249  10.4540
    20.7448  20.9052  21.1464  21.1694

     occupation numbers 
     1.0000   1.0000   1.0000   1.0000   1.0000   1.0000   1.0000   1.0000
     1.0000   1.0000   1.0000   1.0000   1.0000   1.0000   1.0000   1.0000
     0.0000   0.0000   0.0000   0.0000

          k = 0.2500-0.2500 0.2500 (  3749 PWs)   bands (ev):

    -6.5116  -2.3146  -2.2647  -2.2029   2.3200   2.3880   2.3904   6.3165
     6.4044   6.4625   6.5907   8.1934   8.2119   8.2759  11.2310  11.3978
    18.9951  19.0700  19.1921  20.6609

     occupation numbers 
     1.0000   1.0000   1.0000   1.0000   1.0000   1.0000   1.0000   1.0000
     1.0000   1.0000   1.0000   1.0000   1.0000   1.0000   1.0000   1.0000
     0.0000   0.0000   0.0000   0.0000

          k = 0.2500-0.2500 0.3750 (  3759 PWs)   bands (ev):

    -5.8190  -3.6619  -1.8464  -1.7394   1.2578   1.3510   3.1035   5.2079
     6.6120   6.7723   8.2358   8.3794   8.4683   8.7939  10.3984  11.0570
    19.4859  19.9674  20.1303  20.4032

     occupation numbers 
     1.0000   1.0000   1.0000   1.0000   1.0000   1.0000   1.0000   1.0000
     1.0000   1.0000   1.0000   1.0000   1.0000   1.0000   1.0000   1.0000
     0.0000   0.0000   0.0000   0.0000

          k =-0.3750 0.2500 0.2500 (  3759 PWs)   bands (ev):

    -5.8191  -3.6575  -1.8055  -1.8039   1.3414   1.3430   3.0465   5.2121
     6.6517   6.6528   8.2250   8.4278   8.4755   8.8366  10.5163  10.9214
    19.5207  20.0284  20.0426  20.5033

     occupation numbers 
     1.0000   1.0000   1.0000   1.0000   1.0000   1.0000   1.0000   1.0000
     1.0000   1.0000   1.0000   1.0000   1.0000   1.0000   1.0000   1.0000
     0.0000   0.0000   0.0000   0.0000

          k = 0.2500-0.2500-0.5000 (  3758 PWs)   bands (ev):

    -4.9182  -4.8046  -1.5790  -1.4429   0.7538   0.8752   3.9825   4.1124
     6.7457   6.9359   8.3510   8.4438   9.4836   9.5716   9.8900   9.9573
    19.9632  19.9695  21.1211  21.3885

     occupation numbers 
     1.0000   1.0000   1.0000   1.0000   1.0000   1.0000   1.0000   1.0000
     1.0000   1.0000   1.0000   1.0000   1.0000   1.0000   1.0000   1.0000
     0.0000   0.0000   0.0000   0.0000

          k = 0.3750-0.2500 0.3750 (  3749 PWs)   bands (ev):

    -5.1386  -3.0606  -3.0579  -1.7354   0.5348   1.8588   1.8604   3.8685
     7.2512   8.2313   8.2508   9.1330   9.1395   9.1966   9.9051  11.0419
    20.1555  20.4326  20.4710  20.9943

     occupation numbers 
     1.0000   1.0000   1.0000   1.0000   1.0000   1.0000   1.0000   1.0000
     1.0000   1.0000   1.0000   1.0000   1.0000   1.0000   1.0000   1.0000
     0.0000   0.0000   0.0000   0.0000

          k =-0.3750 0.2500 0.3750 (  3749 PWs)   bands (ev):

    -5.1387  -3.0903  -3.0148  -1.7768   0.6239   1.7953   1.8615   3.8717
     7.2556   8.1301   8.2003   9.1235   9.1669   9.3379  10.0092  10.9185
    20.1182  20.4124  20.5475  21.1473

     occupation numbers 
     1.0000   1.0000   1.0000   1.0000   1.0000   1.0000   1.0000   1.0000
     1.0000   1.0000   1.0000   1.0000   1.0000   1.0000   1.0000   1.0000
     0.0000   0.0000   0.0000   0.0000

          k = 0.3750-0.2500-0.5000 (  3756 PWs)   bands (ev):

    -4.2612  -4.1491  -2.3728  -2.2462   0.8219   0.9386   2.6699   2.7954
     7.7129   7.8907   9.1018   9.2059   9.3437   9.4417  10.2487  10.3820
    20.8525  20.8770  20.9281  21.1392

     occupation numbers 
     1.0000   1.0000   1.0000   1.0000   1.0000   1.0000   1.0000   1.0000
     1.0000   1.0000   1.0000   1.0000   1.0000   1.0000   1.0000   1.0000
     0.0000   0.0000   0.0000   0.0000

          k = 0.3750-0.3750 0.3750 (  3752 PWs)   bands (ev):

    -4.4775  -2.6339  -2.5746  -2.4897   0.5749   0.6666   0.6837   2.5161
     8.8644   8.9529   9.0468   9.5187   9.5491   9.6042  10.4633  10.6348
    20.4959  20.5658  20.7027  21.2300

     occupation numbers 
     1.0000   1.0000   1.0000   1.0000   1.0000   1.0000   1.0000   1.0000
     1.0000   1.0000   1.0000   1.0000   1.0000   1.0000   1.0000   1.0000
     0.0000   0.0000   0.0000   0.0000

          k = 0.3750-0.3750-0.5000 (  3760 PWs)   bands (ev):

    -3.6434  -3.5370  -2.3253  -2.1904   0.0240   0.1467   1.3505   1.4663
     9.0522   9.2688   9.7059   9.7739   9.9682  10.0191  10.2150  10.2645
    20.9781  20.9869  21.0694  21.3330

     occupation numbers 
     1.0000   1.0000   1.0000   1.0000   1.0000   1.0000   1.0000   1.0000
     1.0000   1.0000   1.0000   1.0000   1.0000   1.0000   1.0000   1.0000
     0.0000   0.0000   0.0000   0.0000

     the Fermi energy is    15.6271 ev

!    total energy              =     -99.34927816 Ry
     Harris-Foulkes estimate   =     -99.34927814 Ry
     estimated scf accuracy    <       0.00000005 Ry

     The total energy is the sum of the following terms:

     one-electron contribution =      31.95290737 Ry
     hartree contribution      =       7.84262761 Ry
     xc contribution           =     -37.40208329 Ry
     ewald contribution        =    -101.74272984 Ry
     smearing contrib. (-TS)   =      -0.00000000 Ry

     convergence has been achieved in   6 iterations

     Writing output data file c-3.586.save/

     init_run     :      1.81s CPU      1.87s WALL (       1 calls)
     electrons    :     20.69s CPU     21.48s WALL (       1 calls)

     Called by init_run:
     wfcinit      :      1.57s CPU      1.62s WALL (       1 calls)
     wfcinit:atom :      0.01s CPU      0.01s WALL (      65 calls)
     wfcinit:wfcr :      1.47s CPU      1.52s WALL (      65 calls)
     potinit      :      0.03s CPU      0.04s WALL (       1 calls)
     hinit0       :      0.09s CPU      0.09s WALL (       1 calls)

     Called by electrons:
     c_bands      :     18.19s CPU     18.84s WALL (       6 calls)
     sum_band     :      2.25s CPU      2.38s WALL (       6 calls)
     v_of_rho     :      0.13s CPU      0.13s WALL (       7 calls)
     v_h          :      0.01s CPU      0.01s WALL (       7 calls)
     v_xc         :      0.12s CPU      0.12s WALL (       7 calls)
     newd         :      0.13s CPU      0.13s WALL (       7 calls)
     mix_rho      :      0.01s CPU      0.01s WALL (       6 calls)

     Called by c_bands:
     init_us_2    :      0.22s CPU      0.22s WALL (     845 calls)
     cegterg      :     17.52s CPU     18.17s WALL (     390 calls)

     Called by sum_band:
     sum_band:bec :      0.01s CPU      0.01s WALL (     390 calls)
     addusdens    :      0.06s CPU      0.09s WALL (       6 calls)

     Called by *egterg:
     h_psi        :     11.61s CPU     12.24s WALL (    1683 calls)
     s_psi        :      1.39s CPU      1.41s WALL (    1683 calls)
     g_psi        :      0.07s CPU      0.07s WALL (    1228 calls)
     cdiaghg      :      1.35s CPU      1.37s WALL (    1618 calls)
     cegterg:over :      2.05s CPU      2.07s WALL (    1228 calls)
     cegterg:upda :      0.81s CPU      0.81s WALL (    1228 calls)
     cegterg:last :      0.40s CPU      0.40s WALL (     391 calls)

     Called by h_psi:
     h_psi:pot    :     11.57s CPU     12.20s WALL (    1683 calls)
     h_psi:calbec :      1.97s CPU      2.08s WALL (    1683 calls)
     vloc_psi     :      8.19s CPU      8.68s WALL (    1683 calls)
     add_vuspsi   :      1.40s CPU      1.44s WALL (    1683 calls)

     General routines
     calbec       :      2.58s CPU      2.74s WALL (    2073 calls)
     fft          :      0.09s CPU      0.09s WALL (      89 calls)
     ffts         :      0.00s CPU      0.00s WALL (      13 calls)
     fftw         :      8.77s CPU      9.27s WALL (   54280 calls)
     interpolate  :      0.01s CPU      0.01s WALL (       7 calls)

     Parallel routines
     fft_scatt_xy :      0.68s CPU      0.72s WALL (   54382 calls)
     fft_scatt_yz :      4.29s CPU      4.54s WALL (   54382 calls)

     PWSCF        :     22.91s CPU     23.84s WALL


   This run was terminated on:  19: 8:35  26May2022            

=------------------------------------------------------------------------------=
   JOB DONE.
=------------------------------------------------------------------------------=
