
     Program PWSCF v.6.4.1 starts on  2Aug2022 at 10:24:45 

     This program is part of the open-source Quantum ESPRESSO suite
     for quantum simulation of materials; please cite
         "P. Giannozzi et al., J. Phys.:Condens. Matter 21 395502 (2009);
         "P. Giannozzi et al., J. Phys.:Condens. Matter 29 465901 (2017);
          URL http://www.quantum-espresso.org", 
     in publications or presentations arising from this work. More details at
     http://www.quantum-espresso.org/quote

     Parallel version (MPI), running on     6 processors

     MPI processes distributed on     1 nodes
     R & G space division:  proc/nbgrp/npool/nimage =       6
     Reading input from mn-5.in

     Current dimensions of program PWSCF are:
     Max number of different atomic species (ntypx) = 10
     Max number of k-points (npk) =  40000
     Max angular momentum in pseudopotentials (lmaxx) =  3
               file Mn.pbe-spn-rrkjus_psl.0.3.1.UPF: wavefunction(s)  3D renormalized

     Subspace diagonalization in iterative solution of the eigenvalue problem:
     a serial algorithm will be used

     Message from routine setup:
     DEPRECATED: symmetry with ibrav=0, use correct ibrav instead

     Parallelization info
     --------------------
     sticks:   dense  smooth     PW     G-vecs:    dense   smooth      PW
     Min        1862     743    199               124461    31511    4370
     Max        1863     744    200               124463    31513    4372
     Sum       11175    4463   1199               746771   189073   26227



     bravais-lattice index     =            0
     lattice parameter (alat)  =      14.5833  a.u.
     unit-cell volume          =    2387.5141 (a.u.)^3
     number of atoms/cell      =           29
     number of atomic types    =            1
     number of electrons       =       435.00
     number of Kohn-Sham states=          262
     kinetic-energy cutoff     =      70.0000  Ry
     charge density cutoff     =     700.0000  Ry
     convergence threshold     =      1.0E-06
     mixing beta               =       0.7000
     number of iterations used =            8  plain     mixing
     Exchange-correlation      = PBE ( 1  4  3  4 0 0)

     celldm(1)=  14.583305  celldm(2)=   0.000000  celldm(3)=   0.000000
     celldm(4)=   0.000000  celldm(5)=   0.000000  celldm(6)=   0.000000

     crystal axes: (cart. coord. in units of alat)
               a(1) = (  -0.577350   0.577350   0.577350 )  
               a(2) = (   0.577350  -0.577350   0.577350 )  
               a(3) = (   0.577350   0.577350  -0.577350 )  

     reciprocal axes: (cart. coord. in units 2 pi/alat)
               b(1) = (  0.000000  0.866025  0.866025 )  
               b(2) = (  0.866025  0.000000  0.866025 )  
               b(3) = (  0.866025  0.866025  0.000000 )  


     PseudoPot. # 1 for Mn read from file:
     /home/cristian/Escritorio/Proyecto_Grafeno/pseudopotenciales/Mn.pbe-spn-rrkjus_psl.0.3.1.UPF
     MD5 check sum: e1cac159bdd2ba70c18e85765a5d4279
     Pseudo is Ultrasoft + core correction, Zval = 15.0
     Generated using "atomic" code by A. Dal Corso v.6.2.2
     Using radial grid of 1187 points,  6 beta functions with: 
                l(1) =   0
                l(2) =   0
                l(3) =   1
                l(4) =   1
                l(5) =   2
                l(6) =   2
     Q(r) pseudized with 0 coefficients 


     atomic species   valence    mass     pseudopotential
        Mn            15.00    54.93804     Mn( 1.00)

     Starting magnetic structure 
     atomic species   magnetization
        Mn           0.700

     24 Sym. Ops. (no inversion) found


                                    s                        frac. trans.

      isym =  1     identity                                     

 cryst.   s( 1) = (     1          0          0      )
                  (     0          1          0      )
                  (     0          0          1      )

 cart.    s( 1) = (  1.0000000  0.0000000  0.0000000 )
                  (  0.0000000  1.0000000  0.0000000 )
                  (  0.0000000  0.0000000  1.0000000 )


      isym =  2     180 deg rotation - cart. axis [0,0,1]        

 cryst.   s( 2) = (     0          1          0      )
                  (     1          0          0      )
                  (    -1         -1         -1      )

 cart.    s( 2) = ( -1.0000000  0.0000000  0.0000000 )
                  (  0.0000000 -1.0000000  0.0000000 )
                  (  0.0000000  0.0000000  1.0000000 )


      isym =  3     180 deg rotation - cart. axis [0,1,0]        

 cryst.   s( 3) = (     0          0          1      )
                  (    -1         -1         -1      )
                  (     1          0          0      )

 cart.    s( 3) = ( -1.0000000  0.0000000  0.0000000 )
                  (  0.0000000  1.0000000  0.0000000 )
                  (  0.0000000  0.0000000 -1.0000000 )


      isym =  4     180 deg rotation - cart. axis [1,0,0]        

 cryst.   s( 4) = (    -1         -1         -1      )
                  (     0          0          1      )
                  (     0          1          0      )

 cart.    s( 4) = (  1.0000000  0.0000000  0.0000000 )
                  (  0.0000000 -1.0000000  0.0000000 )
                  (  0.0000000  0.0000000 -1.0000000 )


      isym =  5     120 deg rotation - cart. axis [-1,-1,-1]     

 cryst.   s( 5) = (     0          0          1      )
                  (     1          0          0      )
                  (     0          1          0      )

 cart.    s( 5) = (  0.0000000  1.0000000  0.0000000 )
                  (  0.0000000  0.0000000  1.0000000 )
                  (  1.0000000  0.0000000  0.0000000 )


      isym =  6     120 deg rotation - cart. axis [-1,1,1]       

 cryst.   s( 6) = (     1          0          0      )
                  (     0          0          1      )
                  (    -1         -1         -1      )

 cart.    s( 6) = (  0.0000000 -1.0000000  0.0000000 )
                  (  0.0000000  0.0000000  1.0000000 )
                  ( -1.0000000  0.0000000  0.0000000 )


      isym =  7     120 deg rotation - cart. axis [1,1,-1]       

 cryst.   s( 7) = (     0          1          0      )
                  (    -1         -1         -1      )
                  (     0          0          1      )

 cart.    s( 7) = (  0.0000000  1.0000000  0.0000000 )
                  (  0.0000000  0.0000000 -1.0000000 )
                  ( -1.0000000  0.0000000  0.0000000 )


      isym =  8     120 deg rotation - cart. axis [1,-1,1]       

 cryst.   s( 8) = (    -1         -1         -1      )
                  (     0          1          0      )
                  (     1          0          0      )

 cart.    s( 8) = (  0.0000000 -1.0000000  0.0000000 )
                  (  0.0000000  0.0000000 -1.0000000 )
                  (  1.0000000  0.0000000  0.0000000 )


      isym =  9     120 deg rotation - cart. axis [1,1,1]        

 cryst.   s( 9) = (     0          1          0      )
                  (     0          0          1      )
                  (     1          0          0      )

 cart.    s( 9) = (  0.0000000  0.0000000  1.0000000 )
                  (  1.0000000  0.0000000  0.0000000 )
                  (  0.0000000  1.0000000  0.0000000 )


      isym = 10     120 deg rotation - cart. axis [-1,1,-1]      

 cryst.   s(10) = (     0          0          1      )
                  (     0          1          0      )
                  (    -1         -1         -1      )

 cart.    s(10) = (  0.0000000  0.0000000  1.0000000 )
                  ( -1.0000000  0.0000000  0.0000000 )
                  (  0.0000000 -1.0000000  0.0000000 )


      isym = 11     120 deg rotation - cart. axis [1,-1,-1]      

 cryst.   s(11) = (     1          0          0      )
                  (    -1         -1         -1      )
                  (     0          1          0      )

 cart.    s(11) = (  0.0000000  0.0000000 -1.0000000 )
                  ( -1.0000000  0.0000000  0.0000000 )
                  (  0.0000000  1.0000000  0.0000000 )


      isym = 12     120 deg rotation - cart. axis [-1,-1,1]      

 cryst.   s(12) = (    -1         -1         -1      )
                  (     1          0          0      )
                  (     0          0          1      )

 cart.    s(12) = (  0.0000000  0.0000000 -1.0000000 )
                  (  1.0000000  0.0000000  0.0000000 )
                  (  0.0000000 -1.0000000  0.0000000 )


      isym = 13     inv. 180 deg rotation - cart. axis [1,1,0]   

 cryst.   s(13) = (     1          0          0      )
                  (     0          1          0      )
                  (    -1         -1         -1      )

 cart.    s(13) = (  0.0000000 -1.0000000  0.0000000 )
                  ( -1.0000000  0.0000000  0.0000000 )
                  (  0.0000000  0.0000000  1.0000000 )


      isym = 14     inv. 180 deg rotation - cart. axis [1,-1,0]  

 cryst.   s(14) = (     0          1          0      )
                  (     1          0          0      )
                  (     0          0          1      )

 cart.    s(14) = (  0.0000000  1.0000000  0.0000000 )
                  (  1.0000000  0.0000000  0.0000000 )
                  (  0.0000000  0.0000000  1.0000000 )


      isym = 15     inv.  90 deg rotation - cart. axis [0,0,-1]  

 cryst.   s(15) = (    -1         -1         -1      )
                  (     0          0          1      )
                  (     1          0          0      )

 cart.    s(15) = (  0.0000000 -1.0000000  0.0000000 )
                  (  1.0000000  0.0000000  0.0000000 )
                  (  0.0000000  0.0000000 -1.0000000 )


      isym = 16     inv.  90 deg rotation - cart. axis [0,0,1]   

 cryst.   s(16) = (     0          0          1      )
                  (    -1         -1         -1      )
                  (     0          1          0      )

 cart.    s(16) = (  0.0000000  1.0000000  0.0000000 )
                  ( -1.0000000  0.0000000  0.0000000 )
                  (  0.0000000  0.0000000 -1.0000000 )


      isym = 17     inv. 180 deg rotation - cart. axis [1,0,1]   

 cryst.   s(17) = (     1          0          0      )
                  (    -1         -1         -1      )
                  (     0          0          1      )

 cart.    s(17) = (  0.0000000  0.0000000 -1.0000000 )
                  (  0.0000000  1.0000000  0.0000000 )
                  ( -1.0000000  0.0000000  0.0000000 )


      isym = 18     inv. 180 deg rotation - cart. axis [-1,0,1]  

 cryst.   s(18) = (     0          0          1      )
                  (     0          1          0      )
                  (     1          0          0      )

 cart.    s(18) = (  0.0000000  0.0000000  1.0000000 )
                  (  0.0000000  1.0000000  0.0000000 )
                  (  1.0000000  0.0000000  0.0000000 )


      isym = 19     inv.  90 deg rotation - cart. axis [0,1,0]   

 cryst.   s(19) = (    -1         -1         -1      )
                  (     1          0          0      )
                  (     0          1          0      )

 cart.    s(19) = (  0.0000000  0.0000000 -1.0000000 )
                  (  0.0000000 -1.0000000  0.0000000 )
                  (  1.0000000  0.0000000  0.0000000 )


      isym = 20     inv.  90 deg rotation - cart. axis [0,-1,0]  

 cryst.   s(20) = (     0          1          0      )
                  (     0          0          1      )
                  (    -1         -1         -1      )

 cart.    s(20) = (  0.0000000  0.0000000  1.0000000 )
                  (  0.0000000 -1.0000000  0.0000000 )
                  ( -1.0000000  0.0000000  0.0000000 )


      isym = 21     inv. 180 deg rotation - cart. axis [0,1,1]   

 cryst.   s(21) = (    -1         -1         -1      )
                  (     0          1          0      )
                  (     0          0          1      )

 cart.    s(21) = (  1.0000000  0.0000000  0.0000000 )
                  (  0.0000000  0.0000000 -1.0000000 )
                  (  0.0000000 -1.0000000  0.0000000 )


      isym = 22     inv. 180 deg rotation - cart. axis [0,1,-1]  

 cryst.   s(22) = (     1          0          0      )
                  (     0          0          1      )
                  (     0          1          0      )

 cart.    s(22) = (  1.0000000  0.0000000  0.0000000 )
                  (  0.0000000  0.0000000  1.0000000 )
                  (  0.0000000  1.0000000  0.0000000 )


      isym = 23     inv.  90 deg rotation - cart. axis [-1,0,0]  

 cryst.   s(23) = (     0          1          0      )
                  (    -1         -1         -1      )
                  (     1          0          0      )

 cart.    s(23) = ( -1.0000000  0.0000000  0.0000000 )
                  (  0.0000000  0.0000000 -1.0000000 )
                  (  0.0000000  1.0000000  0.0000000 )


      isym = 24     inv.  90 deg rotation - cart. axis [1,0,0]   

 cryst.   s(24) = (     0          0          1      )
                  (     1          0          0      )
                  (    -1         -1         -1      )

 cart.    s(24) = ( -1.0000000  0.0000000  0.0000000 )
                  (  0.0000000  0.0000000  1.0000000 )
                  (  0.0000000 -1.0000000  0.0000000 )


   Cartesian axes

     site n.     atom                  positions (alat units)
         1           Mn  tau(   1) = (   0.0000000   0.0000000   0.0000000  )
         2           Mn  tau(   2) = (   0.3670447   0.3670447   0.3670447  )
         3           Mn  tau(   3) = (   0.2103056   0.2103056  -0.2103056  )
         4           Mn  tau(   4) = (   0.2103056  -0.2103056   0.2103056  )
         5           Mn  tau(   5) = (  -0.2103056   0.2103056   0.2103056  )
         6           Mn  tau(   6) = (   0.4739122   0.4739122  -0.2517940  )
         7           Mn  tau(   7) = (   0.1034381   0.1034381   0.3255563  )
         8           Mn  tau(   8) = (   0.1034381  -0.1034381   0.8291443  )
         9           Mn  tau(   9) = (  -0.1034381   0.1034381   0.8291443  )
        10           Mn  tau(  10) = (  -0.2517940   0.4739122   0.4739122  )
        11           Mn  tau(  11) = (   0.3255563   0.1034381   0.1034381  )
        12           Mn  tau(  12) = (   0.8291443   0.1034381  -0.1034381  )
        13           Mn  tau(  13) = (   0.8291443  -0.1034381   0.1034381  )
        14           Mn  tau(  14) = (   0.4739122  -0.2517940   0.4739122  )
        15           Mn  tau(  15) = (   0.1034381   0.3255563   0.1034381  )
        16           Mn  tau(  16) = (  -0.1034381   0.8291443   0.1034381  )
        17           Mn  tau(  17) = (   0.1034381   0.8291443  -0.1034381  )
        18           Mn  tau(  18) = (   0.1650529   0.1650529   0.6172683  )
        19           Mn  tau(  19) = (   0.4122974   0.4122974   0.0399180  )
        20           Mn  tau(  20) = (  -0.1650529   0.1650529   0.5374323  )
        21           Mn  tau(  21) = (   0.1650529  -0.1650529   0.5374323  )
        22           Mn  tau(  22) = (   0.6172683   0.1650529   0.1650529  )
        23           Mn  tau(  23) = (   0.0399180   0.4122974   0.4122974  )
        24           Mn  tau(  24) = (   0.5374323  -0.1650529   0.1650529  )
        25           Mn  tau(  25) = (   0.5374323   0.1650529  -0.1650529  )
        26           Mn  tau(  26) = (   0.1650529   0.6172683   0.1650529  )
        27           Mn  tau(  27) = (   0.4122974   0.0399180   0.4122974  )
        28           Mn  tau(  28) = (   0.1650529   0.5374323  -0.1650529  )
        29           Mn  tau(  29) = (  -0.1650529   0.5374323   0.1650529  )

   Crystallographic axes

     site n.     atom                  positions (cryst. coord.)
         1           Mn  tau(   1) = (  0.0000000  0.0000000  0.0000000  )
         2           Mn  tau(   2) = (  0.6357400  0.6357400  0.6357400  )
         3           Mn  tau(   3) = (  0.0000000  0.0000000  0.3642600  )
         4           Mn  tau(   4) = (  0.0000000  0.3642600  0.0000000  )
         5           Mn  tau(   5) = (  0.3642600  0.0000000  0.0000000  )
         6           Mn  tau(   6) = (  0.1923600  0.1923600  0.8208400  )
         7           Mn  tau(   7) = (  0.3715200  0.3715200  0.1791600  )
         8           Mn  tau(   8) = (  0.6284800  0.8076400  0.0000000  )
         9           Mn  tau(   9) = (  0.8076400  0.6284800  0.0000000  )
        10           Mn  tau(  10) = (  0.8208400  0.1923600  0.1923600  )
        11           Mn  tau(  11) = (  0.1791600  0.3715200  0.3715200  )
        12           Mn  tau(  12) = (  0.0000000  0.6284800  0.8076400  )
        13           Mn  tau(  13) = (  0.0000000  0.8076400  0.6284800  )
        14           Mn  tau(  14) = (  0.1923600  0.8208400  0.1923600  )
        15           Mn  tau(  15) = (  0.3715200  0.1791600  0.3715200  )
        16           Mn  tau(  16) = (  0.8076400  0.0000000  0.6284800  )
        17           Mn  tau(  17) = (  0.6284800  0.0000000  0.8076400  )
        18           Mn  tau(  18) = (  0.6775100  0.6775100  0.2858800  )
        19           Mn  tau(  19) = (  0.3916300  0.3916300  0.7141200  )
        20           Mn  tau(  20) = (  0.6083700  0.3224900  0.0000000  )
        21           Mn  tau(  21) = (  0.3224900  0.6083700  0.0000000  )
        22           Mn  tau(  22) = (  0.2858800  0.6775100  0.6775100  )
        23           Mn  tau(  23) = (  0.7141200  0.3916300  0.3916300  )
        24           Mn  tau(  24) = (  0.0000000  0.6083700  0.3224900  )
        25           Mn  tau(  25) = (  0.0000000  0.3224900  0.6083700  )
        26           Mn  tau(  26) = (  0.6775100  0.2858800  0.6775100  )
        27           Mn  tau(  27) = (  0.3916300  0.7141200  0.3916300  )
        28           Mn  tau(  28) = (  0.3224900  0.0000000  0.6083700  )
        29           Mn  tau(  29) = (  0.6083700  0.0000000  0.3224900  )

     number of k points=    10  Methfessel-Paxton smearing, width (Ry)=  0.0300
                       cart. coord. in units 2pi/alat
        k(    1) = (   0.0000000   0.0000000   0.0000000), wk =   0.0080000
        k(    2) = (   0.1732051   0.1732051   0.0000000), wk =   0.0960000
        k(    3) = (   0.3464102   0.3464102   0.0000000), wk =   0.0960000
        k(    4) = (   0.3464102   0.1732051   0.1732051), wk =   0.1920000
        k(    5) = (   0.5196152   0.3464102   0.1732051), wk =   0.1920000
        k(    6) = (   0.3464102   0.3464102   0.3464102), wk =   0.0640000
        k(    7) = (   0.0000000   0.0000000   0.3464102), wk =   0.0480000
        k(    8) = (   0.0000000  -0.1732051   0.5196152), wk =   0.1920000
        k(    9) = (  -0.6928203  -0.1732051  -0.1732051), wk =   0.0640000
        k(   10) = (   0.0000000   0.0000000   0.6928203), wk =   0.0480000

                       cryst. coord.
        k(    1) = (   0.0000000   0.0000000   0.0000000), wk =   0.0080000
        k(    2) = (   0.0000000   0.0000000   0.2000000), wk =   0.0960000
        k(    3) = (   0.0000000   0.0000000   0.4000000), wk =   0.0960000
        k(    4) = (   0.0000000   0.2000000   0.2000000), wk =   0.1920000
        k(    5) = (   0.0000000   0.2000000   0.4000000), wk =   0.1920000
        k(    6) = (   0.2000000   0.2000000   0.2000000), wk =   0.0640000
        k(    7) = (   0.2000000   0.2000000  -0.2000000), wk =   0.0480000
        k(    8) = (   0.2000000   0.4000000  -0.4000000), wk =   0.1920000
        k(    9) = (   0.2000000  -0.4000000  -0.4000000), wk =   0.0640000
        k(   10) = (   0.4000000   0.4000000  -0.4000000), wk =   0.0480000

     Dense  grid:   746771 G-vectors     FFT dimensions: ( 125, 125, 125)

     Smooth grid:   189073 G-vectors     FFT dimensions: (  80,  80,  80)

     Dynamical RAM for                 wfc:      15.73 MB

     Dynamical RAM for     wfc (w. buffer):     330.36 MB

     Dynamical RAM for           str. fact:       1.90 MB

     Dynamical RAM for           local pot:       0.00 MB

     Dynamical RAM for          nlocal pot:      31.34 MB

     Dynamical RAM for                qrad:       4.92 MB

     Dynamical RAM for          rho,v,vnew:      26.42 MB

     Dynamical RAM for               rhoin:       8.81 MB

     Dynamical RAM for            rho*nmix:      60.77 MB

     Dynamical RAM for           G-vectors:       7.36 MB

     Dynamical RAM for          h,s,v(r/c):      50.28 MB

     Dynamical RAM for          <psi|beta>:       2.09 MB

     Dynamical RAM for                 psi:      62.93 MB

     Dynamical RAM for                hpsi:      62.93 MB

     Dynamical RAM for                spsi:      62.93 MB

     Dynamical RAM for      wfcinit/wfcrot:      36.75 MB

     Dynamical RAM for           addusdens:     410.21 MB

     Estimated static dynamical RAM per process >     490.70 MB

     Estimated max dynamical RAM per process >     900.91 MB

     Estimated total dynamical RAM >       5.28 GB
     Generating pointlists ...
     new r_m :   0.1207 (alat units)  1.7600 (a.u.) for type    1

     Check: negative core charge=   -0.000005

     Initial potential from superposition of free atoms

     starting charge  434.98555, renormalised to  435.00000
     Starting wfcs are  290 randomized atomic wfcs

     total cpu time spent up to now is      196.4 secs

     Self-consistent Calculation

     iteration #  1     ecut=    70.00 Ry     beta= 0.70
     Davidson diagonalization with overlap
     ethr =  1.00E-02,  avg # of iterations =  3.0

     total cpu time spent up to now is      889.9 secs

     total energy              =   -6195.44566691 Ry
     Harris-Foulkes estimate   =   -6169.32549046 Ry
     estimated scf accuracy    <      36.52333395 Ry

     total magnetization       =    89.00 Bohr mag/cell
     absolute magnetization    =    95.84 Bohr mag/cell

     iteration #  2     ecut=    70.00 Ry     beta= 0.70
     Davidson diagonalization with overlap
     ethr =  8.40E-03,  avg # of iterations =  3.7

     total cpu time spent up to now is     1435.7 secs

     total energy              =   -6181.27855887 Ry
     Harris-Foulkes estimate   =   -6199.72098772 Ry
     estimated scf accuracy    <      48.09590395 Ry

     total magnetization       =    86.41 Bohr mag/cell
     absolute magnetization    =    89.75 Bohr mag/cell

     iteration #  3     ecut=    70.00 Ry     beta= 0.70
     Davidson diagonalization with overlap
     ethr =  8.40E-03,  avg # of iterations =  5.8

     total cpu time spent up to now is     2224.4 secs

     total energy              =   -6198.52076246 Ry
     Harris-Foulkes estimate   =   -6222.05279528 Ry
     estimated scf accuracy    <     164.18303371 Ry

     total magnetization       =    62.74 Bohr mag/cell
     absolute magnetization    =    66.38 Bohr mag/cell

     iteration #  4     ecut=    70.00 Ry     beta= 0.70
     Davidson diagonalization with overlap
     ethr =  8.40E-03,  avg # of iterations =  4.0

     total cpu time spent up to now is     2845.0 secs

     total energy              =   -6197.67877092 Ry
     Harris-Foulkes estimate   =   -6204.73515903 Ry
     estimated scf accuracy    <      80.82228828 Ry

     total magnetization       =    42.99 Bohr mag/cell
     absolute magnetization    =    49.29 Bohr mag/cell

     iteration #  5     ecut=    70.00 Ry     beta= 0.70
     Davidson diagonalization with overlap
     ethr =  8.40E-03,  avg # of iterations =  2.2

     total cpu time spent up to now is     3372.6 secs

     total energy              =   -6198.95478534 Ry
     Harris-Foulkes estimate   =   -6203.47115382 Ry
     estimated scf accuracy    <      74.09602573 Ry

     total magnetization       =    36.80 Bohr mag/cell
     absolute magnetization    =    46.93 Bohr mag/cell

     iteration #  6     ecut=    70.00 Ry     beta= 0.70
     Davidson diagonalization with overlap
     ethr =  8.40E-03,  avg # of iterations =  1.1

     total cpu time spent up to now is     3876.3 secs

     total energy              =   -6199.25279220 Ry
     Harris-Foulkes estimate   =   -6200.31427574 Ry
     estimated scf accuracy    <      28.37692373 Ry

     total magnetization       =    43.70 Bohr mag/cell
     absolute magnetization    =    53.85 Bohr mag/cell

     iteration #  7     ecut=    70.00 Ry     beta= 0.70
     Davidson diagonalization with overlap
     ethr =  6.52E-03,  avg # of iterations =  2.2

     total cpu time spent up to now is     4414.7 secs

     total energy              =   -6197.23339978 Ry
     Harris-Foulkes estimate   =   -6199.92727625 Ry
     estimated scf accuracy    <      16.78301735 Ry

     total magnetization       =    41.84 Bohr mag/cell
     absolute magnetization    =    54.91 Bohr mag/cell

     iteration #  8     ecut=    70.00 Ry     beta= 0.70
     Davidson diagonalization with overlap
     ethr =  3.86E-03,  avg # of iterations =  4.0

     total cpu time spent up to now is     5243.2 secs

     total energy              =   -6202.00025677 Ry
     Harris-Foulkes estimate   =   -6204.67514359 Ry
     estimated scf accuracy    <      68.40019381 Ry

     total magnetization       =    38.73 Bohr mag/cell
     absolute magnetization    =    40.75 Bohr mag/cell

     iteration #  9     ecut=    70.00 Ry     beta= 0.70
     Davidson diagonalization with overlap
     ethr =  3.86E-03,  avg # of iterations =  2.0

     total cpu time spent up to now is     5747.7 secs

     total energy              =   -6200.76176192 Ry
     Harris-Foulkes estimate   =   -6202.37297482 Ry
     estimated scf accuracy    <      38.25775475 Ry

     total magnetization       =    32.07 Bohr mag/cell
     absolute magnetization    =    37.09 Bohr mag/cell

     iteration # 10     ecut=    70.00 Ry     beta= 0.70
     Davidson diagonalization with overlap
     ethr =  3.86E-03,  avg # of iterations =  1.1

     total cpu time spent up to now is     6232.1 secs

     total energy              =   -6201.60114920 Ry
     Harris-Foulkes estimate   =   -6201.12179473 Ry
     estimated scf accuracy    <      10.99742212 Ry

     total magnetization       =    28.71 Bohr mag/cell
     absolute magnetization    =    38.89 Bohr mag/cell

     iteration # 11     ecut=    70.00 Ry     beta= 0.70
     Davidson diagonalization with overlap
     ethr =  2.53E-03,  avg # of iterations =  1.0

     total cpu time spent up to now is     6718.5 secs

     total energy              =   -6201.02950128 Ry
     Harris-Foulkes estimate   =   -6201.81707878 Ry
     estimated scf accuracy    <      28.22719668 Ry

     total magnetization       =    28.41 Bohr mag/cell
     absolute magnetization    =    36.00 Bohr mag/cell

     iteration # 12     ecut=    70.00 Ry     beta= 0.70
     Davidson diagonalization with overlap
     ethr =  2.53E-03,  avg # of iterations =  1.0

     total cpu time spent up to now is     7201.8 secs

     total energy              =   -6200.66847451 Ry
     Harris-Foulkes estimate   =   -6201.22604945 Ry
     estimated scf accuracy    <       9.97303091 Ry

     total magnetization       =    25.18 Bohr mag/cell
     absolute magnetization    =    36.91 Bohr mag/cell

     iteration # 13     ecut=    70.00 Ry     beta= 0.70
     Davidson diagonalization with overlap
     ethr =  2.29E-03,  avg # of iterations =  1.0

     total cpu time spent up to now is     7690.5 secs

     total energy              =   -6201.17509700 Ry
     Harris-Foulkes estimate   =   -6201.22963338 Ry
     estimated scf accuracy    <       7.08719855 Ry

     total magnetization       =    20.61 Bohr mag/cell
     absolute magnetization    =    36.89 Bohr mag/cell

     iteration # 14     ecut=    70.00 Ry     beta= 0.70
     Davidson diagonalization with overlap
     ethr =  1.63E-03,  avg # of iterations =  1.1

     total cpu time spent up to now is     8176.4 secs

     total energy              =   -6201.55451169 Ry
     Harris-Foulkes estimate   =   -6201.25552583 Ry
     estimated scf accuracy    <       6.22610056 Ry

     total magnetization       =    15.69 Bohr mag/cell
     absolute magnetization    =    34.98 Bohr mag/cell

     iteration # 15     ecut=    70.00 Ry     beta= 0.70
     Davidson diagonalization with overlap
     ethr =  1.43E-03,  avg # of iterations =  1.0

     total cpu time spent up to now is     8671.9 secs

     total energy              =   -6201.29324298 Ry
     Harris-Foulkes estimate   =   -6201.71061553 Ry
     estimated scf accuracy    <      12.28336286 Ry

     total magnetization       =     8.13 Bohr mag/cell
     absolute magnetization    =    31.60 Bohr mag/cell

     iteration # 16     ecut=    70.00 Ry     beta= 0.70
     Davidson diagonalization with overlap
     ethr =  1.43E-03,  avg # of iterations =  1.0

     total cpu time spent up to now is     9176.4 secs

     total energy              =   -6201.31799111 Ry
     Harris-Foulkes estimate   =   -6201.38129780 Ry
     estimated scf accuracy    <       5.74362363 Ry

     total magnetization       =     5.12 Bohr mag/cell
     absolute magnetization    =    30.77 Bohr mag/cell

     iteration # 17     ecut=    70.00 Ry     beta= 0.70
     Davidson diagonalization with overlap
     ethr =  1.32E-03,  avg # of iterations =  1.0

     total cpu time spent up to now is     9679.3 secs

     total energy              =   -6201.22600110 Ry
     Harris-Foulkes estimate   =   -6201.36209066 Ry
     estimated scf accuracy    <       4.80657870 Ry

     total magnetization       =     1.33 Bohr mag/cell
     absolute magnetization    =    31.92 Bohr mag/cell

     iteration # 18     ecut=    70.00 Ry     beta= 0.70
     Davidson diagonalization with overlap
     ethr =  1.10E-03,  avg # of iterations =  1.0

     total cpu time spent up to now is    10159.8 secs

     total energy              =   -6201.26713856 Ry
     Harris-Foulkes estimate   =   -6201.28635369 Ry
     estimated scf accuracy    <       0.65740409 Ry

     total magnetization       =    -1.45 Bohr mag/cell
     absolute magnetization    =    32.79 Bohr mag/cell

     iteration # 19     ecut=    70.00 Ry     beta= 0.70
     Davidson diagonalization with overlap
     ethr =  1.51E-04,  avg # of iterations =  3.6

     total cpu time spent up to now is    10683.6 secs

     total energy              =   -6201.29155633 Ry
     Harris-Foulkes estimate   =   -6201.28572139 Ry
     estimated scf accuracy    <       0.04455520 Ry

     total magnetization       =    -2.83 Bohr mag/cell
     absolute magnetization    =    33.61 Bohr mag/cell

     iteration # 20     ecut=    70.00 Ry     beta= 0.70
     Davidson diagonalization with overlap
     ethr =  1.02E-05,  avg # of iterations =  6.1

     total cpu time spent up to now is    11643.2 secs

     total energy              =   -6201.30548550 Ry
     Harris-Foulkes estimate   =   -6201.30531863 Ry
     estimated scf accuracy    <       0.19456656 Ry

     total magnetization       =    -3.59 Bohr mag/cell
     absolute magnetization    =    34.53 Bohr mag/cell

     iteration # 21     ecut=    70.00 Ry     beta= 0.70
     Davidson diagonalization with overlap
     ethr =  1.02E-05,  avg # of iterations =  1.0

     total cpu time spent up to now is    12172.5 secs

     total energy              =   -6201.30284764 Ry
     Harris-Foulkes estimate   =   -6201.30643264 Ry
     estimated scf accuracy    <       0.38672311 Ry

     total magnetization       =    -3.24 Bohr mag/cell
     absolute magnetization    =    34.27 Bohr mag/cell

     iteration # 22     ecut=    70.00 Ry     beta= 0.70
     Davidson diagonalization with overlap
     ethr =  1.02E-05,  avg # of iterations =  1.9

     total cpu time spent up to now is    12716.8 secs

     total energy              =   -6201.31442837 Ry
     Harris-Foulkes estimate   =   -6201.31211683 Ry
     estimated scf accuracy    <       0.05452182 Ry

     total magnetization       =    -5.14 Bohr mag/cell
     absolute magnetization    =    35.71 Bohr mag/cell

     iteration # 23     ecut=    70.00 Ry     beta= 0.70
     Davidson diagonalization with overlap
     ethr =  1.02E-05,  avg # of iterations =  2.3

     total cpu time spent up to now is    13235.6 secs

     total energy              =   -6201.32302808 Ry
     Harris-Foulkes estimate   =   -6201.32178084 Ry
     estimated scf accuracy    <       0.03062356 Ry

     total magnetization       =    -6.77 Bohr mag/cell
     absolute magnetization    =    36.70 Bohr mag/cell

     iteration # 24     ecut=    70.00 Ry     beta= 0.70
     Davidson diagonalization with overlap
     ethr =  7.04E-06,  avg # of iterations =  5.5

     total cpu time spent up to now is    13900.3 secs

     total energy              =   -6201.30833779 Ry
     Harris-Foulkes estimate   =   -6201.33163709 Ry
     estimated scf accuracy    <       0.13010696 Ry

     total magnetization       =    -6.10 Bohr mag/cell
     absolute magnetization    =    36.97 Bohr mag/cell

     iteration # 25     ecut=    70.00 Ry     beta= 0.70
     Davidson diagonalization with overlap
     ethr =  7.04E-06,  avg # of iterations =  3.7

     total cpu time spent up to now is    14491.0 secs

     total energy              =   -6201.27837744 Ry
     Harris-Foulkes estimate   =   -6201.31595503 Ry
     estimated scf accuracy    <       0.02502445 Ry

     total magnetization       =    -4.84 Bohr mag/cell
     absolute magnetization    =    36.20 Bohr mag/cell

     iteration # 26     ecut=    70.00 Ry     beta= 0.70
     Davidson diagonalization with overlap
     ethr =  5.75E-06,  avg # of iterations =  5.5

     total cpu time spent up to now is    15389.5 secs

     total energy              =   -6201.29288440 Ry
     Harris-Foulkes estimate   =   -6201.30671496 Ry
     estimated scf accuracy    <       0.02232719 Ry

     total magnetization       =    -5.61 Bohr mag/cell
     absolute magnetization    =    35.00 Bohr mag/cell

     iteration # 27     ecut=    70.00 Ry     beta= 0.70
     Davidson diagonalization with overlap
     ethr =  5.13E-06,  avg # of iterations =  5.2

     total cpu time spent up to now is    16034.1 secs

     total energy              =   -6201.30550747 Ry
     Harris-Foulkes estimate   =   -6201.30662709 Ry
     estimated scf accuracy    <       0.01483904 Ry

     total magnetization       =    -5.79 Bohr mag/cell
     absolute magnetization    =    35.20 Bohr mag/cell

     iteration # 28     ecut=    70.00 Ry     beta= 0.70
     Davidson diagonalization with overlap
     ethr =  3.41E-06,  avg # of iterations =  1.4

     total cpu time spent up to now is    16593.8 secs

     total energy              =   -6201.30538422 Ry
     Harris-Foulkes estimate   =   -6201.30674115 Ry
     estimated scf accuracy    <       0.00392136 Ry

     total magnetization       =    -5.14 Bohr mag/cell
     absolute magnetization    =    35.15 Bohr mag/cell

     iteration # 29     ecut=    70.00 Ry     beta= 0.70
     Davidson diagonalization with overlap
     ethr =  9.01E-07,  avg # of iterations =  5.3

     total cpu time spent up to now is    17338.0 secs

     total energy              =   -6201.30740503 Ry
     Harris-Foulkes estimate   =   -6201.30759332 Ry
     estimated scf accuracy    <       0.00219641 Ry

     total magnetization       =    -5.56 Bohr mag/cell
     absolute magnetization    =    35.71 Bohr mag/cell

     iteration # 30     ecut=    70.00 Ry     beta= 0.70
     Davidson diagonalization with overlap
     ethr =  5.05E-07,  avg # of iterations =  2.2

     total cpu time spent up to now is    17864.9 secs

     total energy              =   -6201.30786713 Ry
     Harris-Foulkes estimate   =   -6201.30770781 Ry
     estimated scf accuracy    <       0.00042588 Ry

     total magnetization       =    -5.68 Bohr mag/cell
     absolute magnetization    =    35.99 Bohr mag/cell

     iteration # 31     ecut=    70.00 Ry     beta= 0.70
     Davidson diagonalization with overlap
     ethr =  9.79E-08,  avg # of iterations =  4.7

     total cpu time spent up to now is    18798.0 secs

     total energy              =   -6201.30851499 Ry
     Harris-Foulkes estimate   =   -6201.30838399 Ry
     estimated scf accuracy    <       0.00052405 Ry

     total magnetization       =    -5.54 Bohr mag/cell
     absolute magnetization    =    36.74 Bohr mag/cell

     iteration # 32     ecut=    70.00 Ry     beta= 0.70
     Davidson diagonalization with overlap
     ethr =  9.79E-08,  avg # of iterations =  4.1

     total cpu time spent up to now is    19509.8 secs

     total energy              =   -6201.30889140 Ry
     Harris-Foulkes estimate   =   -6201.30879060 Ry
     estimated scf accuracy    <       0.00037428 Ry

     total magnetization       =    -5.41 Bohr mag/cell
     absolute magnetization    =    37.30 Bohr mag/cell

     iteration # 33     ecut=    70.00 Ry     beta= 0.70
     Davidson diagonalization with overlap
     ethr =  8.60E-08,  avg # of iterations =  3.9

     total cpu time spent up to now is    20282.4 secs

     total energy              =   -6201.30880011 Ry
     Harris-Foulkes estimate   =   -6201.30919331 Ry
     estimated scf accuracy    <       0.00051936 Ry

     total magnetization       =    -5.22 Bohr mag/cell
     absolute magnetization    =    37.85 Bohr mag/cell

     iteration # 34     ecut=    70.00 Ry     beta= 0.70
     Davidson diagonalization with overlap
     ethr =  8.60E-08,  avg # of iterations =  5.0

     total cpu time spent up to now is    21256.6 secs

     total energy              =   -6201.30931735 Ry
     Harris-Foulkes estimate   =   -6201.30976969 Ry
     estimated scf accuracy    <       0.00047634 Ry

     total magnetization       =    -5.10 Bohr mag/cell
     absolute magnetization    =    38.92 Bohr mag/cell

     iteration # 35     ecut=    70.00 Ry     beta= 0.70
     Davidson diagonalization with overlap
     ethr =  8.60E-08,  avg # of iterations =  4.5

     total cpu time spent up to now is    22220.9 secs

     total energy              =   -6201.30964306 Ry
     Harris-Foulkes estimate   =   -6201.31017742 Ry
     estimated scf accuracy    <       0.00070977 Ry

     total magnetization       =    -4.85 Bohr mag/cell
     absolute magnetization    =    39.87 Bohr mag/cell

     iteration # 36     ecut=    70.00 Ry     beta= 0.70
     Davidson diagonalization with overlap
     ethr =  8.60E-08,  avg # of iterations =  5.1

     total cpu time spent up to now is    23184.8 secs

     total energy              =   -6201.31035541 Ry
     Harris-Foulkes estimate   =   -6201.31041229 Ry
     estimated scf accuracy    <       0.00058863 Ry

     total magnetization       =    -4.65 Bohr mag/cell
     absolute magnetization    =    40.75 Bohr mag/cell

     iteration # 37     ecut=    70.00 Ry     beta= 0.70
     Davidson diagonalization with overlap
     ethr =  8.60E-08,  avg # of iterations =  1.1

     total cpu time spent up to now is    23696.2 secs

     total energy              =   -6201.31029859 Ry
     Harris-Foulkes estimate   =   -6201.31040599 Ry
     estimated scf accuracy    <       0.00003406 Ry

     total magnetization       =    -4.62 Bohr mag/cell
     absolute magnetization    =    40.89 Bohr mag/cell

     iteration # 38     ecut=    70.00 Ry     beta= 0.70
     Davidson diagonalization with overlap
     ethr =  7.83E-09,  avg # of iterations =  5.0

     total cpu time spent up to now is    24793.2 secs

     total energy              =   -6201.31045866 Ry
     Harris-Foulkes estimate   =   -6201.31047159 Ry
     estimated scf accuracy    <       0.00005141 Ry

     total magnetization       =    -4.57 Bohr mag/cell
     absolute magnetization    =    41.32 Bohr mag/cell

     iteration # 39     ecut=    70.00 Ry     beta= 0.70
     Davidson diagonalization with overlap
     ethr =  7.83E-09,  avg # of iterations =  4.0

     total cpu time spent up to now is    25515.5 secs

     total energy              =   -6201.31048362 Ry
     Harris-Foulkes estimate   =   -6201.31048299 Ry
     estimated scf accuracy    <       0.00003367 Ry

     total magnetization       =    -4.55 Bohr mag/cell
     absolute magnetization    =    41.48 Bohr mag/cell

     iteration # 40     ecut=    70.00 Ry     beta= 0.70
     Davidson diagonalization with overlap
     ethr =  7.74E-09,  avg # of iterations =  2.8

     total cpu time spent up to now is    26042.0 secs

     total energy              =   -6201.31049055 Ry
     Harris-Foulkes estimate   =   -6201.31049100 Ry
     estimated scf accuracy    <       0.00005277 Ry

     total magnetization       =    -4.56 Bohr mag/cell
     absolute magnetization    =    41.56 Bohr mag/cell

     iteration # 41     ecut=    70.00 Ry     beta= 0.70
     Davidson diagonalization with overlap
     ethr =  7.74E-09,  avg # of iterations =  3.5

     total cpu time spent up to now is    26594.2 secs

     total energy              =   -6201.31049758 Ry
     Harris-Foulkes estimate   =   -6201.31049593 Ry
     estimated scf accuracy    <       0.00001451 Ry

     total magnetization       =    -4.56 Bohr mag/cell
     absolute magnetization    =    41.62 Bohr mag/cell

     iteration # 42     ecut=    70.00 Ry     beta= 0.70
     Davidson diagonalization with overlap
     ethr =  3.34E-09,  avg # of iterations =  2.9

     total cpu time spent up to now is    27114.5 secs

     total energy              =   -6201.31043314 Ry
     Harris-Foulkes estimate   =   -6201.31049846 Ry
     estimated scf accuracy    <       0.00001681 Ry

     total magnetization       =    -4.55 Bohr mag/cell
     absolute magnetization    =    41.64 Bohr mag/cell

     iteration # 43     ecut=    70.00 Ry     beta= 0.70
     Davidson diagonalization with overlap
     ethr =  3.34E-09,  avg # of iterations =  5.1

     total cpu time spent up to now is    28033.2 secs

     total energy              =   -6201.31048031 Ry
     Harris-Foulkes estimate   =   -6201.31048282 Ry
     estimated scf accuracy    <       0.00000947 Ry

     total magnetization       =    -4.61 Bohr mag/cell
     absolute magnetization    =    41.40 Bohr mag/cell

     iteration # 44     ecut=    70.00 Ry     beta= 0.70
     Davidson diagonalization with overlap
     ethr =  2.18E-09,  avg # of iterations =  3.1

     total cpu time spent up to now is    28582.6 secs

     total energy              =   -6201.31047997 Ry
     Harris-Foulkes estimate   =   -6201.31048369 Ry
     estimated scf accuracy    <       0.00000813 Ry

     total magnetization       =    -4.61 Bohr mag/cell
     absolute magnetization    =    41.45 Bohr mag/cell

     iteration # 45     ecut=    70.00 Ry     beta= 0.70
     Davidson diagonalization with overlap
     ethr =  1.87E-09,  avg # of iterations =  3.2

     total cpu time spent up to now is    29179.7 secs

     total energy              =   -6201.31048345 Ry
     Harris-Foulkes estimate   =   -6201.31048379 Ry
     estimated scf accuracy    <       0.00001610 Ry

     total magnetization       =    -4.66 Bohr mag/cell
     absolute magnetization    =    41.47 Bohr mag/cell

     iteration # 46     ecut=    70.00 Ry     beta= 0.70
     Davidson diagonalization with overlap
     ethr =  1.87E-09,  avg # of iterations =  3.0

     total cpu time spent up to now is    29715.1 secs

     total energy              =   -6201.31047249 Ry
     Harris-Foulkes estimate   =   -6201.31048542 Ry
     estimated scf accuracy    <       0.00000323 Ry

     total magnetization       =    -4.65 Bohr mag/cell
     absolute magnetization    =    41.51 Bohr mag/cell

     iteration # 47     ecut=    70.00 Ry     beta= 0.70
     Davidson diagonalization with overlap
     ethr =  7.42E-10,  avg # of iterations =  5.0

     total cpu time spent up to now is    30675.2 secs

     total energy              =   -6201.31048716 Ry
     Harris-Foulkes estimate   =   -6201.31048832 Ry
     estimated scf accuracy    <       0.00000299 Ry

     total magnetization       =    -4.66 Bohr mag/cell
     absolute magnetization    =    41.64 Bohr mag/cell

     iteration # 48     ecut=    70.00 Ry     beta= 0.70
     Davidson diagonalization with overlap
     ethr =  6.88E-10,  avg # of iterations =  4.0

     total cpu time spent up to now is    31308.5 secs

     total energy              =   -6201.31048734 Ry
     Harris-Foulkes estimate   =   -6201.31048907 Ry
     estimated scf accuracy    <       0.00000135 Ry

     total magnetization       =    -4.65 Bohr mag/cell
     absolute magnetization    =    41.68 Bohr mag/cell

     iteration # 49     ecut=    70.00 Ry     beta= 0.70
     Davidson diagonalization with overlap
     ethr =  3.09E-10,  avg # of iterations =  4.5

     Magnetic moment per site:
     atom:    1    charge:   12.6579    magn:    0.1171    constr:    0.0000
     atom:    2    charge:   12.6821    magn:   -2.9381    constr:    0.0000
     atom:    3    charge:   12.6821    magn:   -2.9381    constr:    0.0000
     atom:    4    charge:   12.6821    magn:   -2.9381    constr:    0.0000
     atom:    5    charge:   12.6821    magn:   -2.9381    constr:    0.0000
     atom:    6    charge:   12.8186    magn:   -0.7766    constr:    0.0000
     atom:    7    charge:   12.8186    magn:   -0.7766    constr:    0.0000
     atom:    8    charge:   12.8186    magn:   -0.7766    constr:    0.0000
     atom:    9    charge:   12.8186    magn:   -0.7766    constr:    0.0000
     atom:   10    charge:   12.8186    magn:   -0.7766    constr:    0.0000
     atom:   11    charge:   12.8186    magn:   -0.7766    constr:    0.0000
     atom:   12    charge:   12.8186    magn:   -0.7766    constr:    0.0000
     atom:   13    charge:   12.8186    magn:   -0.7766    constr:    0.0000
     atom:   14    charge:   12.8186    magn:   -0.7766    constr:    0.0000
     atom:   15    charge:   12.8186    magn:   -0.7766    constr:    0.0000
     atom:   16    charge:   12.8186    magn:   -0.7766    constr:    0.0000
     atom:   17    charge:   12.8186    magn:   -0.7766    constr:    0.0000
     atom:   18    charge:   12.7560    magn:    1.3949    constr:    0.0000
     atom:   19    charge:   12.7560    magn:    1.3949    constr:    0.0000
     atom:   20    charge:   12.7560    magn:    1.3949    constr:    0.0000
     atom:   21    charge:   12.7560    magn:    1.3949    constr:    0.0000
     atom:   22    charge:   12.7560    magn:    1.3949    constr:    0.0000
     atom:   23    charge:   12.7560    magn:    1.3949    constr:    0.0000
     atom:   24    charge:   12.7560    magn:    1.3949    constr:    0.0000
     atom:   25    charge:   12.7560    magn:    1.3949    constr:    0.0000
     atom:   26    charge:   12.7560    magn:    1.3949    constr:    0.0000
     atom:   27    charge:   12.7560    magn:    1.3949    constr:    0.0000
     atom:   28    charge:   12.7560    magn:    1.3949    constr:    0.0000
     atom:   29    charge:   12.7560    magn:    1.3949    constr:    0.0000

     total cpu time spent up to now is    32160.5 secs

     End of self-consistent calculation

 ------ SPIN UP ------------


          k = 0.0000 0.0000 0.0000 ( 23623 PWs)   bands (ev):

   -62.6482 -62.6237 -62.6237 -62.6237 -62.6150 -62.6150 -62.6022 -62.6022
   -62.6022 -62.6003 -62.6003 -62.6003 -61.8777 -61.3456 -61.3229 -61.3229
   -61.3229 -61.2976 -61.2976 -61.2487 -61.2487 -61.2487 -61.2231 -61.2231
   -61.2231 -59.9189 -59.9189 -59.9189 -59.9187 -31.4793 -31.4793 -31.4793
   -31.4711 -31.4711 -31.4699 -31.4699 -31.4699 -31.4396 -31.4396 -31.4396
   -31.4016 -31.4011 -31.4011 -31.3727 -31.3727 -31.3699 -31.3699 -31.3699
   -31.3642 -31.3365 -31.3365 -31.3365 -31.2759 -31.2759 -31.2759 -31.2527
   -31.2527 -31.2527 -31.1894 -31.1894 -31.1894 -31.1779 -31.1632 -31.1632
   -31.1632 -30.6052 -30.6052 -30.6052 -30.4434 -30.3714 -30.3714 -30.3714
   -30.3056 -30.3056 -30.1090 -30.1062 -30.1062 -30.1062 -30.0881 -30.0881
   -30.0881 -30.0740 -30.0740 -30.0740 -30.0535 -30.0535 -29.9326 -29.9326
   -29.9326 -29.9047 -29.8811 -29.8811 -29.8811 -29.8804 -29.8804 -29.8725
   -29.8725 -29.8725 -29.8717 -29.8717 -29.8717 -29.8132 -29.8132 -29.8132
   -28.7312 -28.7312 -28.7312 -28.7300 -28.7300 -28.7296 -28.7296 -28.7296
   -28.6719 -28.6719 -28.6719 -28.6712   9.4825  12.6990  12.6990  12.6990
    12.8518  12.8524  12.8524  12.8524  12.9058  12.9058  12.9058  12.9807
    12.9807  13.6033  13.7078  13.7078  13.7078  13.7789  13.7789  13.9748
    13.9748  13.9748  14.1471  14.2389  14.2389  14.2389  14.3871  14.4976
    14.4976  14.4976  14.5639  14.5639  14.8085  14.8085  14.8085  14.8634
    14.8634  14.8634  14.9505  14.9505  14.9505  15.0459  15.0480  15.0480
    15.2665  15.2665  15.2665  15.4065  15.4065  15.4065  15.4082  15.4082
    15.4082  15.5326  15.5352  15.5352  15.5352  15.5936  15.5936  15.6448
    15.6448  15.6448  15.8616  15.8616  15.8733  15.9053  15.9053  15.9053
    15.9548  15.9548  15.9548  16.0379  16.1144  16.1144  16.1144  16.2135
    16.2135  16.2135  16.2357  16.2357  16.4987  16.4987  16.7283  16.7283
    16.7283  16.7349  16.7349  16.7349  16.9884  16.9884  16.9884  17.0379
    17.2462  17.2462  17.3855  17.3855  17.3855  17.4536  17.4536  17.5354
    17.5354  17.5354  17.6282  17.6282  17.6282  17.7126  17.7126  17.7126
    17.7851  17.7851  17.7851  17.8528  17.8528  17.9433  17.9433  17.9433
    18.0483  18.0483  18.1559  18.1559  18.1559  18.4948  18.4948  18.4948
    18.5266  18.5266  18.5266  18.5740  18.5740  18.6935  18.6935  18.6935
    18.7688  18.7930  18.7930  18.7930  18.9189  19.0890  19.0890  19.0890
    19.1070  19.1070  19.1070  19.1988  19.2980  19.2980

     occupation numbers 
     1.0000   1.0000   1.0000   1.0000   1.0000   1.0000   1.0000   1.0000
     1.0000   1.0000   1.0000   1.0000   1.0000   1.0000   1.0000   1.0000
     1.0000   1.0000   1.0000   1.0000   1.0000   1.0000   1.0000   1.0000
     1.0000   1.0000   1.0000   1.0000   1.0000   1.0000   1.0000   1.0000
     1.0000   1.0000   1.0000   1.0000   1.0000   1.0000   1.0000   1.0000
     1.0000   1.0000   1.0000   1.0000   1.0000   1.0000   1.0000   1.0000
     1.0000   1.0000   1.0000   1.0000   1.0000   1.0000   1.0000   1.0000
     1.0000   1.0000   1.0000   1.0000   1.0000   1.0000   1.0000   1.0000
     1.0000   1.0000   1.0000   1.0000   1.0000   1.0000   1.0000   1.0000
     1.0000   1.0000   1.0000   1.0000   1.0000   1.0000   1.0000   1.0000
     1.0000   1.0000   1.0000   1.0000   1.0000   1.0000   1.0000   1.0000
     1.0000   1.0000   1.0000   1.0000   1.0000   1.0000   1.0000   1.0000
     1.0000   1.0000   1.0000   1.0000   1.0000   1.0000   1.0000   1.0000
     1.0000   1.0000   1.0000   1.0000   1.0000   1.0000   1.0000   1.0000
     1.0000   1.0000   1.0000   1.0000   1.0000   1.0000   1.0000   1.0000
     1.0000   1.0000   1.0000   1.0000   1.0000   1.0000   1.0000   1.0000
     1.0000   1.0000   1.0000   1.0000   1.0000   1.0000   1.0000   1.0000
     1.0000   1.0000   1.0000   1.0000   1.0000   1.0000   1.0000   1.0000
     1.0000   1.0000   1.0000   1.0000   1.0000   1.0000   1.0000   1.0000
     1.0000   1.0000   1.0000   1.0000   1.0000   1.0000   1.0000   1.0000
     1.0000   1.0000   1.0000   1.0000   1.0000   1.0000   1.0000   1.0000
     1.0000   1.0000   1.0000   1.0000   1.0000   1.0000   1.0000   1.0000
     1.0000   1.0000   1.0000   1.0000   1.0000   1.0000   1.0000   1.0000
     1.0000   1.0000   1.0000   1.0000   1.0000   1.0000   1.0000   1.0001
     1.0001   1.0001   1.0001   1.0001   1.0024   1.0024   1.0158   1.0158
     1.0158   1.0164   1.0164   1.0164   1.0339   1.0339   1.0339   1.0259
     0.8686   0.8686   0.6303   0.6303   0.6303   0.4909   0.4909   0.3256
     0.3256   0.3256   0.1655   0.1655   0.1655   0.0607   0.0607   0.0607
     0.0043   0.0043   0.0043  -0.0239  -0.0239  -0.0354  -0.0354  -0.0354
    -0.0291  -0.0291  -0.0172  -0.0172  -0.0172  -0.0009  -0.0009  -0.0009
    -0.0006  -0.0006  -0.0006  -0.0003  -0.0003  -0.0001  -0.0001  -0.0001
    -0.0000  -0.0000  -0.0000  -0.0000  -0.0000  -0.0000  -0.0000  -0.0000
    -0.0000  -0.0000  -0.0000  -0.0000  -0.0000  -0.0000

          k = 0.1732 0.1732 0.0000 ( 23672 PWs)   bands (ev):

   -62.6467 -62.6279 -62.6241 -62.6237 -62.6142 -62.6121 -62.6025 -62.6023
   -62.6021 -62.6003 -62.6003 -62.6002 -61.8777 -61.3462 -61.3228 -61.3228
   -61.3224 -61.2977 -61.2975 -61.2486 -61.2486 -61.2484 -61.2232 -61.2232
   -61.2231 -59.9189 -59.9189 -59.9189 -59.9187 -31.4828 -31.4815 -31.4797
   -31.4751 -31.4732 -31.4716 -31.4688 -31.4652 -31.4422 -31.4410 -31.4322
   -31.4036 -31.4023 -31.3998 -31.3900 -31.3820 -31.3685 -31.3631 -31.3564
   -31.3511 -31.3374 -31.3350 -31.3341 -31.2803 -31.2746 -31.2637 -31.2540
   -31.2538 -31.2525 -31.1922 -31.1906 -31.1882 -31.1763 -31.1718 -31.1642
   -31.1642 -30.6053 -30.6053 -30.6052 -30.4459 -30.3708 -30.3706 -30.3684
   -30.3067 -30.3055 -30.1133 -30.1077 -30.1059 -30.1015 -30.0891 -30.0876
   -30.0870 -30.0742 -30.0740 -30.0739 -30.0525 -30.0522 -29.9336 -29.9330
   -29.9325 -29.9035 -29.8866 -29.8856 -29.8820 -29.8817 -29.8803 -29.8736
   -29.8722 -29.8709 -29.8697 -29.8692 -29.8674 -29.8130 -29.8129 -29.8128
   -28.7313 -28.7313 -28.7313 -28.7305 -28.7304 -28.7294 -28.7293 -28.7291
   -28.6723 -28.6719 -28.6718 -28.6710   9.6542  11.8997  12.4100  12.4777
    12.4785  12.5227  12.8810  12.9761  13.1769  13.2047  13.2894  13.3219
    13.4101  13.5977  13.6230  13.6555  13.7203  13.7834  13.8166  13.8778
    13.9470  14.0320  14.1328  14.1858  14.2167  14.2417  14.4891  14.5313
    14.5577  14.5698  14.6194  14.7213  14.7984  14.8161  14.8363  14.8756
    14.8807  14.8988  14.9222  14.9585  14.9780  15.0782  15.0863  15.1022
    15.2381  15.2495  15.2750  15.2920  15.3652  15.3699  15.3871  15.4253
    15.4281  15.4584  15.4635  15.5117  15.5243  15.5688  15.6210  15.6400
    15.6435  15.7244  15.7324  15.7876  15.8062  15.8705  15.9163  15.9662
    15.9716  15.9851  16.0403  16.0821  16.1079  16.1253  16.1754  16.1994
    16.2501  16.2764  16.3229  16.3586  16.4845  16.5315  16.5580  16.6067
    16.6491  16.7295  16.7364  16.7684  16.9189  16.9240  17.0104  17.0451
    17.1178  17.1355  17.2898  17.3569  17.3807  17.4161  17.4576  17.5486
    17.5565  17.5866  17.6278  17.6589  17.6909  17.6987  17.7129  17.7365
    17.7742  17.8149  17.8437  17.8661  17.8832  17.9328  17.9775  18.0248
    18.1059  18.1446  18.1659  18.2080  18.2567  18.4039  18.4185  18.4653
    18.4746  18.5427  18.5782  18.6124  18.6269  18.6945  18.7206  18.7944
    18.8072  18.8204  18.8223  18.8530  18.8942  18.9802  19.0254  19.0456
    19.0825  19.1112  19.1407  19.2043  19.2671  19.2754

     occupation numbers 
     1.0000   1.0000   1.0000   1.0000   1.0000   1.0000   1.0000   1.0000
     1.0000   1.0000   1.0000   1.0000   1.0000   1.0000   1.0000   1.0000
     1.0000   1.0000   1.0000   1.0000   1.0000   1.0000   1.0000   1.0000
     1.0000   1.0000   1.0000   1.0000   1.0000   1.0000   1.0000   1.0000
     1.0000   1.0000   1.0000   1.0000   1.0000   1.0000   1.0000   1.0000
     1.0000   1.0000   1.0000   1.0000   1.0000   1.0000   1.0000   1.0000
     1.0000   1.0000   1.0000   1.0000   1.0000   1.0000   1.0000   1.0000
     1.0000   1.0000   1.0000   1.0000   1.0000   1.0000   1.0000   1.0000
     1.0000   1.0000   1.0000   1.0000   1.0000   1.0000   1.0000   1.0000
     1.0000   1.0000   1.0000   1.0000   1.0000   1.0000   1.0000   1.0000
     1.0000   1.0000   1.0000   1.0000   1.0000   1.0000   1.0000   1.0000
     1.0000   1.0000   1.0000   1.0000   1.0000   1.0000   1.0000   1.0000
     1.0000   1.0000   1.0000   1.0000   1.0000   1.0000   1.0000   1.0000
     1.0000   1.0000   1.0000   1.0000   1.0000   1.0000   1.0000   1.0000
     1.0000   1.0000   1.0000   1.0000   1.0000   1.0000   1.0000   1.0000
     1.0000   1.0000   1.0000   1.0000   1.0000   1.0000   1.0000   1.0000
     1.0000   1.0000   1.0000   1.0000   1.0000   1.0000   1.0000   1.0000
     1.0000   1.0000   1.0000   1.0000   1.0000   1.0000   1.0000   1.0000
     1.0000   1.0000   1.0000   1.0000   1.0000   1.0000   1.0000   1.0000
     1.0000   1.0000   1.0000   1.0000   1.0000   1.0000   1.0000   1.0000
     1.0000   1.0000   1.0000   1.0000   1.0000   1.0000   1.0000   1.0000
     1.0000   1.0000   1.0000   1.0000   1.0000   1.0000   1.0000   1.0000
     1.0000   1.0000   1.0000   1.0000   1.0000   1.0000   1.0000   1.0000
     1.0000   1.0000   1.0000   1.0000   1.0000   1.0000   1.0000   1.0001
     1.0001   1.0002   1.0003   1.0005   1.0021   1.0033   1.0042   1.0065
     1.0091   1.0159   1.0166   1.0200   1.0347   1.0349   1.0313   1.0241
     0.9930   0.9816   0.8042   0.6861   0.6398   0.5683   0.4825   0.3006
     0.2859   0.2322   0.1661   0.1225   0.0835   0.0750   0.0604   0.0388
     0.0110  -0.0107  -0.0213  -0.0272  -0.0305  -0.0352  -0.0348  -0.0314
    -0.0227  -0.0184  -0.0162  -0.0123  -0.0086  -0.0023  -0.0020  -0.0012
    -0.0011  -0.0005  -0.0003  -0.0002  -0.0002  -0.0001  -0.0000  -0.0000
    -0.0000  -0.0000  -0.0000  -0.0000  -0.0000  -0.0000  -0.0000  -0.0000
    -0.0000  -0.0000  -0.0000  -0.0000  -0.0000  -0.0000

          k = 0.3464 0.3464 0.0000 ( 23588 PWs)   bands (ev):

   -62.6427 -62.6345 -62.6247 -62.6238 -62.6130 -62.6091 -62.6030 -62.6027
   -62.6021 -62.6003 -62.6002 -62.6001 -61.8777 -61.3470 -61.3228 -61.3228
   -61.3216 -61.2978 -61.2973 -61.2486 -61.2484 -61.2481 -61.2235 -61.2234
   -61.2232 -59.9189 -59.9189 -59.9189 -59.9187 -31.4859 -31.4855 -31.4810
   -31.4806 -31.4744 -31.4722 -31.4691 -31.4600 -31.4462 -31.4428 -31.4198
   -31.4123 -31.4054 -31.3966 -31.3906 -31.3887 -31.3778 -31.3528 -31.3447
   -31.3417 -31.3388 -31.3319 -31.3279 -31.2888 -31.2723 -31.2564 -31.2556
   -31.2530 -31.2342 -31.1971 -31.1945 -31.1932 -31.1860 -31.1723 -31.1671
   -31.1662 -30.6055 -30.6053 -30.6052 -30.4496 -30.3697 -30.3693 -30.3639
   -30.3086 -30.3053 -30.1172 -30.1100 -30.1054 -30.0976 -30.0908 -30.0864
   -30.0854 -30.0746 -30.0736 -30.0736 -30.0511 -30.0502 -29.9352 -29.9338
   -29.9323 -29.9017 -29.8923 -29.8900 -29.8836 -29.8827 -29.8804 -29.8764
   -29.8723 -29.8696 -29.8670 -29.8660 -29.8630 -29.8127 -29.8125 -29.8123
   -28.7317 -28.7316 -28.7314 -28.7307 -28.7306 -28.7293 -28.7289 -28.7286
   -28.6728 -28.6718 -28.6715 -28.6710  10.1542  10.9391  12.1958  12.2687
    12.2695  12.3159  13.1251  13.1551  13.3388  13.3836  13.3873  13.4596
    13.5388  13.5511  13.6445  13.7015  13.7543  13.8112  13.8291  13.8638
    13.9001  14.0031  14.1047  14.2227  14.2777  14.2818  14.4361  14.5310
    14.5483  14.6472  14.7250  14.7639  14.8021  14.8102  14.8534  14.9135
    14.9345  14.9507  14.9762  15.0337  15.0795  15.0938  15.1149  15.1617
    15.1813  15.1978  15.2108  15.2639  15.2673  15.3247  15.3885  15.4059
    15.4334  15.4787  15.4841  15.5265  15.5419  15.5583  15.6435  15.6623
    15.7095  15.7466  15.7473  15.7786  15.8108  15.8568  15.8737  15.9074
    15.9754  16.0255  16.0361  16.0699  16.1007  16.1990  16.1992  16.2189
    16.3075  16.3103  16.3302  16.3947  16.4560  16.5286  16.5356  16.6291
    16.6737  16.7142  16.7161  16.7595  16.7632  16.8291  16.8463  16.9484
    16.9844  17.1272  17.1424  17.3141  17.3254  17.3868  17.4103  17.4827
    17.4996  17.5641  17.5956  17.6591  17.7308  17.7367  17.7698  17.8086
    17.8178  17.8206  17.8743  17.9463  17.9472  17.9988  18.0342  18.0973
    18.1564  18.2077  18.2637  18.2908  18.3502  18.4040  18.4044  18.4811
    18.5466  18.5679  18.5858  18.6160  18.6454  18.6704  18.7433  18.8056
    18.8473  18.8761  18.8859  18.9220  18.9261  18.9910  19.0036  19.0373
    19.0935  19.1351  19.1907  19.2223  19.2510  19.2972

     occupation numbers 
     1.0000   1.0000   1.0000   1.0000   1.0000   1.0000   1.0000   1.0000
     1.0000   1.0000   1.0000   1.0000   1.0000   1.0000   1.0000   1.0000
     1.0000   1.0000   1.0000   1.0000   1.0000   1.0000   1.0000   1.0000
     1.0000   1.0000   1.0000   1.0000   1.0000   1.0000   1.0000   1.0000
     1.0000   1.0000   1.0000   1.0000   1.0000   1.0000   1.0000   1.0000
     1.0000   1.0000   1.0000   1.0000   1.0000   1.0000   1.0000   1.0000
     1.0000   1.0000   1.0000   1.0000   1.0000   1.0000   1.0000   1.0000
     1.0000   1.0000   1.0000   1.0000   1.0000   1.0000   1.0000   1.0000
     1.0000   1.0000   1.0000   1.0000   1.0000   1.0000   1.0000   1.0000
     1.0000   1.0000   1.0000   1.0000   1.0000   1.0000   1.0000   1.0000
     1.0000   1.0000   1.0000   1.0000   1.0000   1.0000   1.0000   1.0000
     1.0000   1.0000   1.0000   1.0000   1.0000   1.0000   1.0000   1.0000
     1.0000   1.0000   1.0000   1.0000   1.0000   1.0000   1.0000   1.0000
     1.0000   1.0000   1.0000   1.0000   1.0000   1.0000   1.0000   1.0000
     1.0000   1.0000   1.0000   1.0000   1.0000   1.0000   1.0000   1.0000
     1.0000   1.0000   1.0000   1.0000   1.0000   1.0000   1.0000   1.0000
     1.0000   1.0000   1.0000   1.0000   1.0000   1.0000   1.0000   1.0000
     1.0000   1.0000   1.0000   1.0000   1.0000   1.0000   1.0000   1.0000
     1.0000   1.0000   1.0000   1.0000   1.0000   1.0000   1.0000   1.0000
     1.0000   1.0000   1.0000   1.0000   1.0000   1.0000   1.0000   1.0000
     1.0000   1.0000   1.0000   1.0000   1.0000   1.0000   1.0000   1.0000
     1.0000   1.0000   1.0000   1.0000   1.0000   1.0000   1.0000   1.0000
     1.0000   1.0000   1.0000   1.0000   1.0000   1.0000   1.0000   1.0000
     1.0000   1.0000   1.0000   1.0000   1.0000   1.0001   1.0001   1.0001
     1.0003   1.0003   1.0004   1.0008   1.0016   1.0032   1.0034   1.0078
     1.0109   1.0144   1.0146   1.0190   1.0194   1.0268   1.0287   1.0355
     1.0342   0.9872   0.9767   0.7638   0.7442   0.6278   0.5802   0.4309
     0.3964   0.2720   0.2170   0.1222   0.0437   0.0386   0.0138  -0.0079
    -0.0119  -0.0131  -0.0289  -0.0355  -0.0355  -0.0335  -0.0305  -0.0236
    -0.0172  -0.0123  -0.0081  -0.0065  -0.0039  -0.0023  -0.0023  -0.0010
    -0.0005  -0.0004  -0.0003  -0.0002  -0.0001  -0.0001  -0.0000  -0.0000
    -0.0000  -0.0000  -0.0000  -0.0000  -0.0000  -0.0000  -0.0000  -0.0000
    -0.0000  -0.0000  -0.0000  -0.0000  -0.0000  -0.0000

          k = 0.3464 0.1732 0.1732 ( 23630 PWs)   bands (ev):

   -62.6439 -62.6321 -62.6277 -62.6208 -62.6143 -62.6093 -62.6030 -62.6024
   -62.6022 -62.6004 -62.6002 -62.6002 -61.8777 -61.3468 -61.3228 -61.3227
   -61.3219 -61.2977 -61.2974 -61.2486 -61.2484 -61.2482 -61.2234 -61.2234
   -61.2232 -59.9189 -59.9189 -59.9189 -59.9187 -31.4854 -31.4836 -31.4801
   -31.4778 -31.4769 -31.4733 -31.4694 -31.4608 -31.4502 -31.4341 -31.4255
   -31.4130 -31.4051 -31.3969 -31.3918 -31.3802 -31.3755 -31.3617 -31.3439
   -31.3434 -31.3372 -31.3357 -31.3271 -31.2932 -31.2624 -31.2559 -31.2556
   -31.2520 -31.2473 -31.1978 -31.1898 -31.1876 -31.1876 -31.1736 -31.1661
   -31.1661 -30.6055 -30.6053 -30.6052 -30.4489 -30.3697 -30.3691 -30.3655
   -30.3078 -30.3058 -30.1159 -30.1098 -30.1070 -30.0972 -30.0894 -30.0876
   -30.0855 -30.0742 -30.0741 -30.0737 -30.0512 -30.0507 -29.9348 -29.9334
   -29.9327 -29.9020 -29.8902 -29.8894 -29.8850 -29.8824 -29.8820 -29.8733
   -29.8717 -29.8693 -29.8689 -29.8656 -29.8647 -29.8127 -29.8126 -29.8125
   -28.7316 -28.7316 -28.7314 -28.7308 -28.7305 -28.7292 -28.7290 -28.7287
   -28.6728 -28.6717 -28.6716 -28.6710   9.9902  11.4828  11.5385  12.1475
    12.6554  12.6876  13.0558  13.0764  13.3110  13.3267  13.3655  13.4555
    13.5334  13.5555  13.6537  13.6702  13.6929  13.7871  13.8272  13.8771
    13.9394  13.9441  14.1716  14.2070  14.2627  14.2808  14.4859  14.5468
    14.5807  14.6064  14.6656  14.7533  14.7928  14.8197  14.8317  14.8953
    14.8957  14.9528  14.9668  15.0288  15.0485  15.0749  15.1152  15.1654
    15.2092  15.2111  15.2648  15.2650  15.2876  15.3250  15.3707  15.4275
    15.4276  15.4641  15.4865  15.5172  15.5291  15.5679  15.5753  15.6404
    15.7052  15.7437  15.7719  15.7823  15.8076  15.8555  15.8605  15.9128
    15.9533  16.0156  16.0476  16.1220  16.1355  16.1830  16.1881  16.2615
    16.2737  16.2971  16.3410  16.3841  16.4220  16.5331  16.5625  16.6059
    16.6536  16.6805  16.7548  16.7794  16.8083  16.8503  16.8746  16.9131
    17.0313  17.1099  17.2336  17.2432  17.3663  17.4067  17.4215  17.5036
    17.5378  17.5396  17.6120  17.6207  17.6634  17.7235  17.7546  17.8112
    17.8246  17.8808  17.8939  17.9122  17.9492  18.0081  18.0127  18.1084
    18.2044  18.2159  18.2373  18.2598  18.2917  18.3832  18.4110  18.4426
    18.4952  18.5392  18.5954  18.6130  18.6552  18.7055  18.7364  18.8162
    18.8354  18.8389  18.8815  18.9226  18.9287  18.9698  18.9969  19.0269
    19.1022  19.1485  19.1855  19.2076  19.2209  19.2831

     occupation numbers 
     1.0000   1.0000   1.0000   1.0000   1.0000   1.0000   1.0000   1.0000
     1.0000   1.0000   1.0000   1.0000   1.0000   1.0000   1.0000   1.0000
     1.0000   1.0000   1.0000   1.0000   1.0000   1.0000   1.0000   1.0000
     1.0000   1.0000   1.0000   1.0000   1.0000   1.0000   1.0000   1.0000
     1.0000   1.0000   1.0000   1.0000   1.0000   1.0000   1.0000   1.0000
     1.0000   1.0000   1.0000   1.0000   1.0000   1.0000   1.0000   1.0000
     1.0000   1.0000   1.0000   1.0000   1.0000   1.0000   1.0000   1.0000
     1.0000   1.0000   1.0000   1.0000   1.0000   1.0000   1.0000   1.0000
     1.0000   1.0000   1.0000   1.0000   1.0000   1.0000   1.0000   1.0000
     1.0000   1.0000   1.0000   1.0000   1.0000   1.0000   1.0000   1.0000
     1.0000   1.0000   1.0000   1.0000   1.0000   1.0000   1.0000   1.0000
     1.0000   1.0000   1.0000   1.0000   1.0000   1.0000   1.0000   1.0000
     1.0000   1.0000   1.0000   1.0000   1.0000   1.0000   1.0000   1.0000
     1.0000   1.0000   1.0000   1.0000   1.0000   1.0000   1.0000   1.0000
     1.0000   1.0000   1.0000   1.0000   1.0000   1.0000   1.0000   1.0000
     1.0000   1.0000   1.0000   1.0000   1.0000   1.0000   1.0000   1.0000
     1.0000   1.0000   1.0000   1.0000   1.0000   1.0000   1.0000   1.0000
     1.0000   1.0000   1.0000   1.0000   1.0000   1.0000   1.0000   1.0000
     1.0000   1.0000   1.0000   1.0000   1.0000   1.0000   1.0000   1.0000
     1.0000   1.0000   1.0000   1.0000   1.0000   1.0000   1.0000   1.0000
     1.0000   1.0000   1.0000   1.0000   1.0000   1.0000   1.0000   1.0000
     1.0000   1.0000   1.0000   1.0000   1.0000   1.0000   1.0000   1.0000
     1.0000   1.0000   1.0000   1.0000   1.0000   1.0000   1.0000   1.0000
     1.0000   1.0000   1.0000   1.0000   1.0000   1.0001   1.0001   1.0002
     1.0002   1.0002   1.0004   1.0007   1.0011   1.0034   1.0044   1.0064
     1.0094   1.0114   1.0185   1.0212   1.0244   1.0291   1.0315   1.0344
     1.0274   0.9976   0.8851   0.8727   0.6681   0.5875   0.5573   0.3884
     0.3210   0.3176   0.1904   0.1768   0.1166   0.0502   0.0244  -0.0091
    -0.0147  -0.0301  -0.0321  -0.0340  -0.0355  -0.0328  -0.0325  -0.0224
    -0.0126  -0.0116  -0.0099  -0.0084  -0.0065  -0.0028  -0.0021  -0.0015
    -0.0009  -0.0005  -0.0003  -0.0002  -0.0001  -0.0001  -0.0000  -0.0000
    -0.0000  -0.0000  -0.0000  -0.0000  -0.0000  -0.0000  -0.0000  -0.0000
    -0.0000  -0.0000  -0.0000  -0.0000  -0.0000  -0.0000

          k = 0.5196 0.3464 0.1732 ( 23613 PWs)   bands (ev):

   -62.6401 -62.6366 -62.6290 -62.6193 -62.6146 -62.6078 -62.6033 -62.6026
   -62.6022 -62.6004 -62.6002 -62.6001 -61.8777 -61.3472 -61.3228 -61.3225
   -61.3217 -61.2977 -61.2974 -61.2485 -61.2484 -61.2481 -61.2236 -61.2234
   -61.2233 -59.9189 -59.9189 -59.9189 -59.9188 -31.4853 -31.4833 -31.4820
   -31.4808 -31.4780 -31.4758 -31.4690 -31.4582 -31.4540 -31.4318 -31.4205
   -31.4150 -31.4103 -31.3952 -31.3883 -31.3827 -31.3786 -31.3596 -31.3401
   -31.3389 -31.3385 -31.3347 -31.3196 -31.3031 -31.2581 -31.2569 -31.2562
   -31.2512 -31.2249 -31.2087 -31.2012 -31.1900 -31.1865 -31.1705 -31.1688
   -31.1675 -30.6055 -30.6053 -30.6052 -30.4507 -30.3691 -30.3677 -30.3642
   -30.3082 -30.3062 -30.1167 -30.1123 -30.1072 -30.0954 -30.0893 -30.0860
   -30.0857 -30.0745 -30.0739 -30.0737 -30.0503 -30.0498 -29.9351 -29.9341
   -29.9327 -29.9012 -29.8922 -29.8908 -29.8875 -29.8833 -29.8825 -29.8736
   -29.8715 -29.8685 -29.8660 -29.8656 -29.8634 -29.8125 -29.8124 -29.8122
   -28.7318 -28.7317 -28.7314 -28.7308 -28.7307 -28.7291 -28.7288 -28.7286
   -28.6730 -28.6717 -28.6714 -28.6710  10.6014  10.6640  11.3749  12.0299
    12.5778  12.9543  13.0091  13.0602  13.3769  13.3837  13.4445  13.5277
    13.5320  13.5691  13.6635  13.6704  13.7081  13.7914  13.8493  13.9022
    13.9173  13.9743  14.1547  14.2403  14.2453  14.3383  14.4137  14.5044
    14.5965  14.6006  14.6970  14.7033  14.7715  14.8106  14.8885  14.9008
    14.9510  14.9710  15.0297  15.0305  15.0784  15.0997  15.1340  15.1606
    15.1913  15.1969  15.2241  15.2637  15.2719  15.3639  15.3735  15.3911
    15.4419  15.4419  15.4764  15.5169  15.5945  15.5975  15.6634  15.6750
    15.6826  15.7075  15.7663  15.7944  15.8083  15.8363  15.8911  15.9456
    15.9645  16.0207  16.0484  16.0787  16.1146  16.1866  16.2250  16.2306
    16.2752  16.3428  16.3878  16.4044  16.4375  16.4808  16.5061  16.6423
    16.6593  16.6725  16.7174  16.7316  16.7326  16.8054  16.8354  16.9028
    16.9751  17.1269  17.1622  17.2527  17.3103  17.4020  17.4139  17.4249
    17.4779  17.5341  17.5442  17.6037  17.6224  17.7162  17.7594  17.8401
    17.8881  17.9079  17.9384  17.9810  17.9986  18.0402  18.0810  18.0924
    18.1269  18.2362  18.2760  18.3336  18.3849  18.4012  18.4716  18.5112
    18.5289  18.5835  18.6010  18.6154  18.6797  18.6898  18.7264  18.7794
    18.8633  18.8777  18.8974  18.9134  18.9486  18.9932  18.9986  19.0731
    19.1064  19.1241  19.2052  19.2083  19.2551  19.2852

     occupation numbers 
     1.0000   1.0000   1.0000   1.0000   1.0000   1.0000   1.0000   1.0000
     1.0000   1.0000   1.0000   1.0000   1.0000   1.0000   1.0000   1.0000
     1.0000   1.0000   1.0000   1.0000   1.0000   1.0000   1.0000   1.0000
     1.0000   1.0000   1.0000   1.0000   1.0000   1.0000   1.0000   1.0000
     1.0000   1.0000   1.0000   1.0000   1.0000   1.0000   1.0000   1.0000
     1.0000   1.0000   1.0000   1.0000   1.0000   1.0000   1.0000   1.0000
     1.0000   1.0000   1.0000   1.0000   1.0000   1.0000   1.0000   1.0000
     1.0000   1.0000   1.0000   1.0000   1.0000   1.0000   1.0000   1.0000
     1.0000   1.0000   1.0000   1.0000   1.0000   1.0000   1.0000   1.0000
     1.0000   1.0000   1.0000   1.0000   1.0000   1.0000   1.0000   1.0000
     1.0000   1.0000   1.0000   1.0000   1.0000   1.0000   1.0000   1.0000
     1.0000   1.0000   1.0000   1.0000   1.0000   1.0000   1.0000   1.0000
     1.0000   1.0000   1.0000   1.0000   1.0000   1.0000   1.0000   1.0000
     1.0000   1.0000   1.0000   1.0000   1.0000   1.0000   1.0000   1.0000
     1.0000   1.0000   1.0000   1.0000   1.0000   1.0000   1.0000   1.0000
     1.0000   1.0000   1.0000   1.0000   1.0000   1.0000   1.0000   1.0000
     1.0000   1.0000   1.0000   1.0000   1.0000   1.0000   1.0000   1.0000
     1.0000   1.0000   1.0000   1.0000   1.0000   1.0000   1.0000   1.0000
     1.0000   1.0000   1.0000   1.0000   1.0000   1.0000   1.0000   1.0000
     1.0000   1.0000   1.0000   1.0000   1.0000   1.0000   1.0000   1.0000
     1.0000   1.0000   1.0000   1.0000   1.0000   1.0000   1.0000   1.0000
     1.0000   1.0000   1.0000   1.0000   1.0000   1.0000   1.0000   1.0000
     1.0000   1.0000   1.0000   1.0000   1.0000   1.0000   1.0000   1.0000
     1.0000   1.0000   1.0000   1.0000   1.0000   1.0001   1.0001   1.0001
     1.0002   1.0004   1.0007   1.0009   1.0013   1.0020   1.0026   1.0086
     1.0098   1.0108   1.0147   1.0161   1.0162   1.0241   1.0275   1.0338
     1.0348   0.9873   0.9610   0.8597   0.7704   0.5972   0.5729   0.5503
     0.4407   0.3282   0.3088   0.2038   0.1742   0.0572   0.0209  -0.0202
    -0.0313  -0.0337  -0.0353  -0.0346  -0.0335  -0.0299  -0.0255  -0.0242
    -0.0203  -0.0100  -0.0074  -0.0045  -0.0028  -0.0024  -0.0011  -0.0007
    -0.0006  -0.0003  -0.0002  -0.0002  -0.0001  -0.0001  -0.0000  -0.0000
    -0.0000  -0.0000  -0.0000  -0.0000  -0.0000  -0.0000  -0.0000  -0.0000
    -0.0000  -0.0000  -0.0000  -0.0000  -0.0000  -0.0000

          k = 0.3464 0.3464 0.3464 ( 23611 PWs)   bands (ev):

   -62.6400 -62.6340 -62.6340 -62.6162 -62.6117 -62.6117 -62.6028 -62.6028
   -62.6025 -62.6005 -62.6002 -62.6002 -61.8777 -61.3473 -61.3224 -61.3224
   -61.3219 -61.2977 -61.2977 -61.2485 -61.2483 -61.2483 -61.2234 -61.2234
   -61.2233 -59.9189 -59.9189 -59.9189 -59.9188 -31.4824 -31.4824 -31.4803
   -31.4780 -31.4780 -31.4703 -31.4703 -31.4657 -31.4640 -31.4222 -31.4222
   -31.4103 -31.3952 -31.3952 -31.3912 -31.3912 -31.3844 -31.3725 -31.3374
   -31.3374 -31.3354 -31.3269 -31.3269 -31.3128 -31.2579 -31.2579 -31.2520
   -31.2356 -31.2356 -31.2071 -31.2042 -31.1868 -31.1868 -31.1709 -31.1682
   -31.1682 -30.6054 -30.6053 -30.6053 -30.4505 -30.3673 -30.3673 -30.3648
   -30.3082 -30.3082 -30.1149 -30.1098 -30.1098 -30.0944 -30.0884 -30.0884
   -30.0858 -30.0744 -30.0744 -30.0743 -30.0504 -30.0504 -29.9344 -29.9330
   -29.9330 -29.9018 -29.8906 -29.8906 -29.8876 -29.8833 -29.8833 -29.8704
   -29.8698 -29.8698 -29.8684 -29.8654 -29.8654 -29.8125 -29.8123 -29.8123
   -28.7316 -28.7316 -28.7316 -28.7307 -28.7307 -28.7291 -28.7288 -28.7288
   -28.6729 -28.6715 -28.6715 -28.6711  10.4747  11.2015  11.2015  11.2999
    13.1711  13.1846  13.1846  13.2006  13.3405  13.3405  13.3468  13.5178
    13.5178  13.5563  13.6397  13.6397  13.6808  13.7657  13.7657  13.8262
    13.8831  13.8831  14.2499  14.2499  14.2664  14.3350  14.5286  14.5286
    14.6183  14.6465  14.6465  14.7194  14.7932  14.7932  14.8264  14.8264
    14.8963  14.9568  15.0176  15.0176  15.0191  15.0581  15.0581  15.1447
    15.1447  15.1588  15.2901  15.3255  15.3255  15.3487  15.3928  15.3998
    15.3998  15.4863  15.5218  15.5218  15.5635  15.6243  15.6243  15.6612
    15.7286  15.7286  15.7455  15.7455  15.8751  15.8895  15.8895  15.9029
    15.9383  15.9383  16.0689  16.0689  16.0981  16.1886  16.1886  16.2938
    16.3267  16.3267  16.4093  16.4096  16.4501  16.4501  16.5293  16.6157
    16.6157  16.6808  16.6808  16.7365  16.7547  16.7547  16.8875  16.9646
    16.9646  17.0951  17.2056  17.2056  17.3694  17.3694  17.3830  17.4550
    17.4550  17.4608  17.4819  17.5209  17.5209  17.8295  17.8295  17.8307
    17.8548  17.8548  17.9182  17.9967  17.9967  18.0337  18.0582  18.0582
    18.2263  18.2696  18.2696  18.3649  18.3755  18.3755  18.5318  18.5318
    18.6046  18.6046  18.6477  18.6894  18.7070  18.7070  18.7131  18.8245
    18.8245  18.8339  18.9185  18.9567  18.9567  18.9917  19.0404  19.0404
    19.1689  19.1689  19.1717  19.1831  19.2503  19.2878

     occupation numbers 
     1.0000   1.0000   1.0000   1.0000   1.0000   1.0000   1.0000   1.0000
     1.0000   1.0000   1.0000   1.0000   1.0000   1.0000   1.0000   1.0000
     1.0000   1.0000   1.0000   1.0000   1.0000   1.0000   1.0000   1.0000
     1.0000   1.0000   1.0000   1.0000   1.0000   1.0000   1.0000   1.0000
     1.0000   1.0000   1.0000   1.0000   1.0000   1.0000   1.0000   1.0000
     1.0000   1.0000   1.0000   1.0000   1.0000   1.0000   1.0000   1.0000
     1.0000   1.0000   1.0000   1.0000   1.0000   1.0000   1.0000   1.0000
     1.0000   1.0000   1.0000   1.0000   1.0000   1.0000   1.0000   1.0000
     1.0000   1.0000   1.0000   1.0000   1.0000   1.0000   1.0000   1.0000
     1.0000   1.0000   1.0000   1.0000   1.0000   1.0000   1.0000   1.0000
     1.0000   1.0000   1.0000   1.0000   1.0000   1.0000   1.0000   1.0000
     1.0000   1.0000   1.0000   1.0000   1.0000   1.0000   1.0000   1.0000
     1.0000   1.0000   1.0000   1.0000   1.0000   1.0000   1.0000   1.0000
     1.0000   1.0000   1.0000   1.0000   1.0000   1.0000   1.0000   1.0000
     1.0000   1.0000   1.0000   1.0000   1.0000   1.0000   1.0000   1.0000
     1.0000   1.0000   1.0000   1.0000   1.0000   1.0000   1.0000   1.0000
     1.0000   1.0000   1.0000   1.0000   1.0000   1.0000   1.0000   1.0000
     1.0000   1.0000   1.0000   1.0000   1.0000   1.0000   1.0000   1.0000
     1.0000   1.0000   1.0000   1.0000   1.0000   1.0000   1.0000   1.0000
     1.0000   1.0000   1.0000   1.0000   1.0000   1.0000   1.0000   1.0000
     1.0000   1.0000   1.0000   1.0000   1.0000   1.0000   1.0000   1.0000
     1.0000   1.0000   1.0000   1.0000   1.0000   1.0000   1.0000   1.0000
     1.0000   1.0000   1.0000   1.0000   1.0000   1.0000   1.0000   1.0000
     1.0000   1.0000   1.0000   1.0000   1.0000   1.0001   1.0001   1.0002
     1.0004   1.0004   1.0009   1.0009   1.0015   1.0015   1.0032   1.0070
     1.0070   1.0115   1.0115   1.0166   1.0185   1.0185   1.0326   1.0352
     1.0352   1.0054   0.9186   0.9186   0.6619   0.6619   0.6353   0.4880
     0.4880   0.4760   0.4325   0.3538   0.3538  -0.0165  -0.0165  -0.0170
    -0.0245  -0.0245  -0.0345  -0.0337  -0.0337  -0.0306  -0.0280  -0.0280
    -0.0108  -0.0077  -0.0077  -0.0034  -0.0030  -0.0030  -0.0006  -0.0006
    -0.0002  -0.0002  -0.0001  -0.0001  -0.0001  -0.0001  -0.0001  -0.0000
    -0.0000  -0.0000  -0.0000  -0.0000  -0.0000  -0.0000  -0.0000  -0.0000
    -0.0000  -0.0000  -0.0000  -0.0000  -0.0000  -0.0000

          k = 0.0000 0.0000 0.3464 ( 23639 PWs)   bands (ev):

   -62.6453 -62.6302 -62.6237 -62.6237 -62.6170 -62.6085 -62.6030 -62.6021
   -62.6021 -62.6002 -62.6002 -62.6002 -61.8777 -61.3466 -61.3228 -61.3228
   -61.3222 -61.2977 -61.2972 -61.2485 -61.2485 -61.2484 -61.2233 -61.2233
   -61.2233 -59.9189 -59.9189 -59.9189 -59.9187 -31.4852 -31.4800 -31.4800
   -31.4787 -31.4760 -31.4760 -31.4741 -31.4563 -31.4391 -31.4391 -31.4303
   -31.4210 -31.4037 -31.3981 -31.3920 -31.3713 -31.3616 -31.3582 -31.3582
   -31.3483 -31.3389 -31.3389 -31.3264 -31.2741 -31.2741 -31.2639 -31.2538
   -31.2538 -31.2528 -31.1912 -31.1912 -31.1904 -31.1802 -31.1752 -31.1653
   -31.1653 -30.6053 -30.6053 -30.6053 -30.4479 -30.3702 -30.3702 -30.3669
   -30.3076 -30.3043 -30.1143 -30.1099 -30.1099 -30.0968 -30.0880 -30.0868
   -30.0868 -30.0741 -30.0741 -30.0737 -30.0516 -30.0508 -29.9339 -29.9337
   -29.9337 -29.9021 -29.8876 -29.8863 -29.8859 -29.8859 -29.8828 -29.8708
   -29.8706 -29.8706 -29.8671 -29.8670 -29.8670 -29.8127 -29.8127 -29.8127
   -28.7317 -28.7312 -28.7312 -28.7312 -28.7303 -28.7291 -28.7291 -28.7289
   -28.6728 -28.6716 -28.6716 -28.6710   9.8234  11.9835  12.0221  12.0221
    12.0736  12.9704  12.9704  12.9865  13.0625  13.3269  13.4451  13.4671
    13.4671  13.4751  13.6702  13.6702  13.6723  13.7225  13.8804  13.9136
    14.0361  14.0361  14.0522  14.1506  14.2912  14.2912  14.3986  14.5355
    14.5974  14.5974  14.6797  14.7310  14.7953  14.7953  14.8115  14.8483
    14.8483  14.9336  15.0188  15.0188  15.0621  15.0731  15.1593  15.1653
    15.2030  15.2030  15.2891  15.3219  15.3219  15.3635  15.4012  15.4460
    15.4601  15.4601  15.4614  15.4759  15.5264  15.5264  15.5743  15.6218
    15.6486  15.6486  15.7251  15.7675  15.8466  15.8466  15.8475  15.9292
    16.0104  16.0104  16.0105  16.1600  16.1600  16.2145  16.2451  16.2701
    16.2812  16.3180  16.3180  16.3995  16.4314  16.4598  16.4598  16.6272
    16.6395  16.6919  16.7750  16.7750  16.8957  16.9059  16.9142  16.9451
    16.9451  17.1446  17.2878  17.3911  17.4184  17.4191  17.4191  17.4845
    17.4845  17.5725  17.6519  17.6632  17.6632  17.7073  17.7756  17.7756
    17.7966  17.8481  17.8481  17.8667  17.9288  18.0420  18.0420  18.1269
    18.1836  18.1836  18.2140  18.2449  18.3272  18.3573  18.3872  18.4456
    18.4456  18.5059  18.5806  18.5806  18.6019  18.6788  18.7112  18.7476
    18.7476  18.8507  18.8720  18.8720  18.8941  18.9765  19.0188  19.0188
    19.0850  19.0850  19.1900  19.2049  19.2142  19.3188

     occupation numbers 
     1.0000   1.0000   1.0000   1.0000   1.0000   1.0000   1.0000   1.0000
     1.0000   1.0000   1.0000   1.0000   1.0000   1.0000   1.0000   1.0000
     1.0000   1.0000   1.0000   1.0000   1.0000   1.0000   1.0000   1.0000
     1.0000   1.0000   1.0000   1.0000   1.0000   1.0000   1.0000   1.0000
     1.0000   1.0000   1.0000   1.0000   1.0000   1.0000   1.0000   1.0000
[...]
     1.0000   1.0000   1.0000   1.0000   1.0000   1.0000   1.0000   1.0000
     1.0000   1.0000   1.0000   1.0000   1.0000   1.0000   1.0000   1.0000
     1.0000   1.0000   1.0000   1.0000   1.0000   1.0000   1.0000   1.0000
     1.0000   1.0000   1.0000   1.0000   1.0000   1.0000   1.0000   1.0000
     1.0000   1.0000   1.0000   1.0000   1.0000   1.0000   1.0000   1.0000
     1.0000   1.0000   1.0000   1.0000   1.0000   1.0000   1.0000   1.0000
     1.0000   1.0000   1.0000   1.0000   1.0000   1.0000   1.0000   1.0000
     1.0000   1.0000   1.0000   1.0000   1.0000   1.0000   1.0000   1.0001
     1.0002   1.0002   1.0002   1.0006   1.0006   1.0007   1.0008   1.0044
     1.0051   1.0109   1.0111   1.0169   1.0169   1.0222   1.0305   1.0329
     1.0329   1.0353   1.0126   1.0126   0.9867   0.9371   0.9371   0.8955
     0.8212   0.7548   0.5971   0.5971   0.4834   0.2693   0.2541   0.2541
     0.1042   0.0202  -0.0144  -0.0290  -0.0318  -0.0318  -0.0223  -0.0223
    -0.0217  -0.0191  -0.0114  -0.0114  -0.0093  -0.0089  -0.0052  -0.0029
    -0.0029  -0.0028  -0.0026  -0.0018  -0.0017  -0.0017  -0.0003  -0.0003
    -0.0001  -0.0001  -0.0000  -0.0000  -0.0000  -0.0000  -0.0000  -0.0000
    -0.0000  -0.0000  -0.0000  -0.0000  -0.0000  -0.0000

          k = 0.0000-0.1732 0.5196 ( 23566 PWs)   bands (ev):

   -63.4828 -63.4827 -63.4827 -63.4826 -62.2838 -62.2601 -62.2594 -62.2594
   -62.2355 -62.2351 -62.1877 -62.1875 -62.1873 -62.1630 -62.1629 -62.1628
   -61.7630 -60.9522 -60.9462 -60.9359 -60.9352 -60.9293 -60.9176 -60.9155
   -60.9141 -60.9139 -60.9118 -60.9117 -60.9117 -32.2115 -32.2112 -32.2112
   -32.2098 -32.2092 -32.2092 -32.2087 -32.2084 -32.1863 -32.1858 -32.1856
   -32.1837 -31.2583 -31.1892 -31.1859 -31.1856 -31.1326 -31.1313 -31.1190
   -31.1077 -31.1069 -31.1018 -31.0658 -31.0657 -31.0637 -31.0382 -31.0360
   -31.0349 -31.0338 -31.0311 -30.9052 -30.9044 -30.9014 -30.9009 -30.8984
   -30.8965 -30.8880 -30.8838 -30.8833 -30.8782 -30.8733 -30.8644 -30.7207
   -30.7206 -30.7192 -30.6380 -30.6377 -30.6376 -30.4725 -30.4725 -30.4724
   -29.8535 -29.8081 -29.7899 -29.7866 -29.7557 -29.7487 -29.7455 -29.7404
   -29.7319 -29.7291 -29.7256 -29.7233 -29.7130 -29.7081 -29.7034 -29.6920
   -29.6778 -29.6736 -29.6720 -29.6653 -29.6617 -29.6600 -29.6448 -29.6428
   -29.6332 -29.6198 -29.5936 -29.5922 -29.5910 -29.5890 -29.5835 -29.5784
   -29.5757 -29.5611 -29.5519 -29.5497  10.2711  11.0361  11.6526  11.7984
    12.3116  12.6909  12.8068  12.8353  13.2509  13.3052  13.4154  13.4431
    13.4817  13.4974  13.5178  13.5878  13.6356  13.6765  13.7244  13.8134
    13.8599  13.8978  14.0164  14.1880  14.2376  14.2710  14.3392  14.4085
    14.4266  14.4547  14.4890  14.5145  14.5839  14.6091  14.6624  14.7024
    14.7231  14.7776  14.7839  14.8301  14.9113  14.9288  15.0018  15.0104
    15.0633  15.0853  15.1230  15.1680  15.2151  15.2435  15.2639  15.3095
    15.3196  15.3767  15.3886  15.4378  15.4619  15.4706  15.5038  15.5272
    15.5678  15.6021  15.6106  15.6696  15.7078  15.7175  15.7854  15.8217
    15.8908  15.9258  15.9425  15.9937  16.0565  16.0790  16.1288  16.1753
    16.2242  16.2739  16.3333  16.3584  16.4070  16.4239  16.4422  16.5039
    16.5334  16.6061  16.6549  16.7288  16.7522  16.8194  16.8754  16.9109
    16.9358  16.9710  17.0191  17.0732  17.1087  17.1123  17.2013  17.2252
    17.3012  17.3226  17.3614  17.4329  17.4752  17.4959  17.5437  17.5785
    17.6966  17.7415  17.8061  17.8435  17.9173  17.9190  18.0106  18.0396
    18.0701  18.1449  18.1605  18.1893  18.2467  18.2772  18.3035  18.3642
    18.3766  18.4136  18.4433  18.4671  18.4848  18.5108  18.5800  18.6180
    18.6432  18.6916  18.7475  18.7568  18.7767  18.8114  18.8324  18.8766
    18.9080  18.9196  18.9531  18.9730  18.9878  19.0680

     occupation numbers 
     1.0000   1.0000   1.0000   1.0000   1.0000   1.0000   1.0000   1.0000
     1.0000   1.0000   1.0000   1.0000   1.0000   1.0000   1.0000   1.0000
     1.0000   1.0000   1.0000   1.0000   1.0000   1.0000   1.0000   1.0000
     1.0000   1.0000   1.0000   1.0000   1.0000   1.0000   1.0000   1.0000
     1.0000   1.0000   1.0000   1.0000   1.0000   1.0000   1.0000   1.0000
     1.0000   1.0000   1.0000   1.0000   1.0000   1.0000   1.0000   1.0000
     1.0000   1.0000   1.0000   1.0000   1.0000   1.0000   1.0000   1.0000
     1.0000   1.0000   1.0000   1.0000   1.0000   1.0000   1.0000   1.0000
     1.0000   1.0000   1.0000   1.0000   1.0000   1.0000   1.0000   1.0000
     1.0000   1.0000   1.0000   1.0000   1.0000   1.0000   1.0000   1.0000
     1.0000   1.0000   1.0000   1.0000   1.0000   1.0000   1.0000   1.0000
     1.0000   1.0000   1.0000   1.0000   1.0000   1.0000   1.0000   1.0000
     1.0000   1.0000   1.0000   1.0000   1.0000   1.0000   1.0000   1.0000
     1.0000   1.0000   1.0000   1.0000   1.0000   1.0000   1.0000   1.0000
     1.0000   1.0000   1.0000   1.0000   1.0000   1.0000   1.0000   1.0000
     1.0000   1.0000   1.0000   1.0000   1.0000   1.0000   1.0000   1.0000
     1.0000   1.0000   1.0000   1.0000   1.0000   1.0000   1.0000   1.0000
     1.0000   1.0000   1.0000   1.0000   1.0000   1.0000   1.0000   1.0000
     1.0000   1.0000   1.0000   1.0000   1.0000   1.0000   1.0000   1.0000
     1.0000   1.0000   1.0000   1.0000   1.0000   1.0000   1.0000   1.0000
     1.0000   1.0000   1.0000   1.0000   1.0000   1.0000   1.0000   1.0000
     1.0000   1.0000   1.0000   1.0000   1.0000   1.0000   1.0000   1.0000
     1.0000   1.0000   1.0000   1.0000   1.0000   1.0000   1.0000   1.0000
     1.0000   1.0000   1.0000   1.0000   1.0000   1.0000   1.0000   1.0000
     1.0001   1.0002   1.0004   1.0005   1.0009   1.0011   1.0013   1.0025
     1.0034   1.0064   1.0095   1.0158   1.0182   1.0257   1.0316   1.0343
     1.0353   1.0350   1.0298   1.0149   0.9983   0.9962   0.9233   0.8957
     0.7857   0.7491   0.6774   0.5338   0.4463   0.4039   0.3098   0.2462
     0.0772   0.0346  -0.0067  -0.0212  -0.0344  -0.0345  -0.0326  -0.0300
    -0.0267  -0.0184  -0.0167  -0.0139  -0.0093  -0.0073  -0.0059  -0.0034
    -0.0030  -0.0021  -0.0015  -0.0012  -0.0010  -0.0007  -0.0003  -0.0002
    -0.0001  -0.0001  -0.0000  -0.0000  -0.0000  -0.0000  -0.0000  -0.0000
    -0.0000  -0.0000  -0.0000  -0.0000  -0.0000  -0.0000

          k =-0.6928-0.1732-0.1732 ( 23596 PWs)   bands (ev):

   -63.4828 -63.4827 -63.4827 -63.4826 -62.2836 -62.2598 -62.2598 -62.2593
   -62.2355 -62.2355 -62.1877 -62.1875 -62.1875 -62.1629 -62.1629 -62.1627
   -61.7630 -60.9490 -60.9490 -60.9377 -60.9321 -60.9321 -60.9160 -60.9158
   -60.9141 -60.9141 -60.9118 -60.9118 -60.9117 -32.2115 -32.2114 -32.2114
   -32.2094 -32.2093 -32.2093 -32.2084 -32.2084 -32.1860 -32.1860 -32.1860
   -32.1834 -31.2575 -31.1881 -31.1881 -31.1855 -31.1321 -31.1321 -31.1208
   -31.1068 -31.1040 -31.1040 -31.0654 -31.0641 -31.0641 -31.0372 -31.0372
   -31.0353 -31.0329 -31.0329 -30.9046 -30.9018 -30.9018 -30.9000 -30.9000
   -30.8970 -30.8867 -30.8855 -30.8855 -30.8736 -30.8736 -30.8663 -30.7209
   -30.7198 -30.7198 -30.6380 -30.6378 -30.6378 -30.4725 -30.4725 -30.4725
   -29.8603 -29.8016 -29.8016 -29.7882 -29.7575 -29.7478 -29.7478 -29.7396
   -29.7283 -29.7283 -29.7205 -29.7205 -29.7088 -29.6988 -29.6951 -29.6951
   -29.6777 -29.6758 -29.6758 -29.6655 -29.6655 -29.6552 -29.6432 -29.6432
   -29.6313 -29.6101 -29.6101 -29.5942 -29.5908 -29.5908 -29.5858 -29.5780
   -29.5780 -29.5544 -29.5544 -29.5525  10.8771  10.8932  10.8932  12.1769
    12.2148  12.2148  12.6899  13.1245  13.3325  13.3585  13.3585  13.4421
    13.5220  13.5220  13.5698  13.6385  13.6385  13.6605  13.7244  13.7244
    13.8437  14.0066  14.0066  14.2543  14.2840  14.2840  14.3872  14.4173
    14.4173  14.4381  14.4381  14.5113  14.5768  14.5768  14.6839  14.6839
    14.6964  14.7904  14.7904  14.8378  14.8378  14.9953  14.9953  15.0262
    15.0682  15.1008  15.1384  15.1384  15.2123  15.2123  15.2788  15.3198
    15.3198  15.3879  15.3879  15.4217  15.4922  15.4938  15.4938  15.5262
    15.5262  15.6553  15.6553  15.6817  15.6817  15.7069  15.8012  15.8525
    15.8852  15.9294  15.9294  16.0863  16.0874  16.0874  16.0943  16.1921
    16.1921  16.2860  16.2860  16.3866  16.4096  16.4096  16.5146  16.5248
    16.5248  16.6871  16.6871  16.6956  16.7300  16.8201  16.8201  16.8741
    16.9550  16.9945  16.9945  17.0093  17.0495  17.1534  17.1534  17.2733
    17.2733  17.3435  17.3435  17.3888  17.5112  17.5112  17.5156  17.6525
    17.6525  17.7126  17.8041  17.8041  17.9087  17.9087  17.9093  18.0840
    18.0840  18.0909  18.1951  18.1951  18.2050  18.2280  18.3009  18.3009
    18.3626  18.3626  18.4195  18.4816  18.5099  18.5099  18.5867  18.6489
    18.6555  18.6555  18.7461  18.7461  18.8015  18.8291  18.8750  18.8750
    18.9366  18.9366  18.9629  18.9944  18.9944  19.1084

     occupation numbers 
     1.0000   1.0000   1.0000   1.0000   1.0000   1.0000   1.0000   1.0000
     1.0000   1.0000   1.0000   1.0000   1.0000   1.0000   1.0000   1.0000
     1.0000   1.0000   1.0000   1.0000   1.0000   1.0000   1.0000   1.0000
     1.0000   1.0000   1.0000   1.0000   1.0000   1.0000   1.0000   1.0000
     1.0000   1.0000   1.0000   1.0000   1.0000   1.0000   1.0000   1.0000
     1.0000   1.0000   1.0000   1.0000   1.0000   1.0000   1.0000   1.0000
     1.0000   1.0000   1.0000   1.0000   1.0000   1.0000   1.0000   1.0000
     1.0000   1.0000   1.0000   1.0000   1.0000   1.0000   1.0000   1.0000
     1.0000   1.0000   1.0000   1.0000   1.0000   1.0000   1.0000   1.0000
     1.0000   1.0000   1.0000   1.0000   1.0000   1.0000   1.0000   1.0000
     1.0000   1.0000   1.0000   1.0000   1.0000   1.0000   1.0000   1.0000
     1.0000   1.0000   1.0000   1.0000   1.0000   1.0000   1.0000   1.0000
     1.0000   1.0000   1.0000   1.0000   1.0000   1.0000   1.0000   1.0000
     1.0000   1.0000   1.0000   1.0000   1.0000   1.0000   1.0000   1.0000
     1.0000   1.0000   1.0000   1.0000   1.0000   1.0000   1.0000   1.0000
     1.0000   1.0000   1.0000   1.0000   1.0000   1.0000   1.0000   1.0000
     1.0000   1.0000   1.0000   1.0000   1.0000   1.0000   1.0000   1.0000
     1.0000   1.0000   1.0000   1.0000   1.0000   1.0000   1.0000   1.0000
     1.0000   1.0000   1.0000   1.0000   1.0000   1.0000   1.0000   1.0000
     1.0000   1.0000   1.0000   1.0000   1.0000   1.0000   1.0000   1.0000
     1.0000   1.0000   1.0000   1.0000   1.0000   1.0000   1.0000   1.0000
     1.0000   1.0000   1.0000   1.0000   1.0000   1.0000   1.0000   1.0000
     1.0000   1.0000   1.0000   1.0000   1.0000   1.0000   1.0000   1.0000
     1.0000   1.0000   1.0000   1.0000   1.0000   1.0000   1.0000   1.0001
     1.0001   1.0002   1.0002   1.0007   1.0009   1.0009   1.0028   1.0031
     1.0031   1.0120   1.0120   1.0127   1.0159   1.0258   1.0258   1.0314
     1.0354   1.0333   1.0333   1.0314   1.0228   0.9682   0.9682   0.8299
     0.8299   0.7112   0.7112   0.6238   0.3732   0.3732   0.3644   0.1309
     0.1309   0.0607  -0.0058  -0.0058  -0.0337  -0.0337  -0.0338  -0.0251
    -0.0251  -0.0244  -0.0134  -0.0134  -0.0125  -0.0106  -0.0060  -0.0060
    -0.0034  -0.0034  -0.0020  -0.0010  -0.0007  -0.0007  -0.0003  -0.0001
    -0.0001  -0.0001  -0.0000  -0.0000  -0.0000  -0.0000  -0.0000  -0.0000
    -0.0000  -0.0000  -0.0000  -0.0000  -0.0000  -0.0000

          k = 0.0000 0.0000 0.6928 ( 23626 PWs)   bands (ev):

   -63.4827 -63.4827 -63.4827 -63.4827 -62.2835 -62.2596 -62.2594 -62.2594
   -62.2359 -62.2357 -62.1876 -62.1876 -62.1876 -62.1627 -62.1627 -62.1627
   -61.7630 -60.9497 -60.9474 -60.9352 -60.9352 -60.9338 -60.9161 -60.9148
   -60.9139 -60.9139 -60.9117 -60.9117 -60.9117 -32.2117 -32.2115 -32.2115
   -32.2095 -32.2093 -32.2093 -32.2083 -32.2082 -32.1863 -32.1861 -32.1861
   -32.1831 -31.2568 -31.1878 -31.1870 -31.1870 -31.1332 -31.1326 -31.1229
   -31.1051 -31.1051 -31.1037 -31.0636 -31.0636 -31.0629 -31.0378 -31.0357
   -31.0357 -31.0353 -31.0330 -30.9021 -30.9021 -30.9004 -30.9001 -30.8992
   -30.8992 -30.8887 -30.8865 -30.8865 -30.8719 -30.8701 -30.8688 -30.7201
   -30.7201 -30.7198 -30.6381 -30.6380 -30.6380 -30.4725 -30.4725 -30.4725
   -29.8673 -29.8014 -29.7979 -29.7979 -29.7596 -29.7458 -29.7458 -29.7455
   -29.7289 -29.7275 -29.7081 -29.7051 -29.7028 -29.7028 -29.7008 -29.6850
   -29.6791 -29.6791 -29.6732 -29.6640 -29.6607 -29.6607 -29.6413 -29.6350
   -29.6350 -29.6313 -29.6116 -29.5905 -29.5905 -29.5879 -29.5851 -29.5831
   -29.5831 -29.5554 -29.5519 -29.5519  10.7364  11.3831  11.3831  11.5216
    11.5502  12.0885  12.9882  13.2485  13.3288  13.3288  13.3881  13.4925
    13.5343  13.5343  13.6351  13.6351  13.6489  13.6594  13.6979  13.7233
    13.7233  14.0576  14.1467  14.2835  14.2835  14.3481  14.3514  14.3567
    14.3567  14.4451  14.4983  14.4983  14.5225  14.6085  14.6643  14.7204
    14.7389  14.7389  14.7780  14.7929  14.8578  14.9418  14.9418  14.9886
    15.0634  15.0634  15.1372  15.1572  15.1803  15.1803  15.2296  15.3028
    15.3028  15.3509  15.3958  15.4359  15.4421  15.4421  15.5263  15.6062
    15.6458  15.6458  15.6628  15.7544  15.7544  15.7668  15.8513  15.9019
    15.9701  16.0192  16.0192  16.0649  16.0808  16.0857  16.0857  16.1235
    16.1381  16.3379  16.3379  16.3992  16.4889  16.4889  16.5209  16.5285
    16.5297  16.6749  16.6801  16.6801  16.7030  16.8075  16.8225  16.8225
    16.9047  17.0067  17.0279  17.0279  17.0649  17.0649  17.0841  17.2216
    17.3028  17.3652  17.4222  17.4222  17.4681  17.5007  17.5007  17.5675
    17.5772  17.7563  17.8388  17.8388  17.8651  17.8878  17.9822  17.9894
    18.0015  18.0015  18.1607  18.1607  18.1832  18.2224  18.2586  18.2643
    18.2643  18.2991  18.4291  18.4978  18.5144  18.5144  18.6531  18.6745
    18.6745  18.7464  18.7625  18.7625  18.8383  18.8452  18.8596  18.8596
    18.9194  18.9475  18.9629  18.9637  18.9637  19.0753

     occupation numbers 
     1.0000   1.0000   1.0000   1.0000   1.0000   1.0000   1.0000   1.0000
     1.0000   1.0000   1.0000   1.0000   1.0000   1.0000   1.0000   1.0000
     1.0000   1.0000   1.0000   1.0000   1.0000   1.0000   1.0000   1.0000
     1.0000   1.0000   1.0000   1.0000   1.0000   1.0000   1.0000   1.0000
     1.0000   1.0000   1.0000   1.0000   1.0000   1.0000   1.0000   1.0000
     1.0000   1.0000   1.0000   1.0000   1.0000   1.0000   1.0000   1.0000
     1.0000   1.0000   1.0000   1.0000   1.0000   1.0000   1.0000   1.0000
     1.0000   1.0000   1.0000   1.0000   1.0000   1.0000   1.0000   1.0000
     1.0000   1.0000   1.0000   1.0000   1.0000   1.0000   1.0000   1.0000
     1.0000   1.0000   1.0000   1.0000   1.0000   1.0000   1.0000   1.0000
     1.0000   1.0000   1.0000   1.0000   1.0000   1.0000   1.0000   1.0000
     1.0000   1.0000   1.0000   1.0000   1.0000   1.0000   1.0000   1.0000
     1.0000   1.0000   1.0000   1.0000   1.0000   1.0000   1.0000   1.0000
     1.0000   1.0000   1.0000   1.0000   1.0000   1.0000   1.0000   1.0000
     1.0000   1.0000   1.0000   1.0000   1.0000   1.0000   1.0000   1.0000
     1.0000   1.0000   1.0000   1.0000   1.0000   1.0000   1.0000   1.0000
     1.0000   1.0000   1.0000   1.0000   1.0000   1.0000   1.0000   1.0000
     1.0000   1.0000   1.0000   1.0000   1.0000   1.0000   1.0000   1.0000
     1.0000   1.0000   1.0000   1.0000   1.0000   1.0000   1.0000   1.0000
     1.0000   1.0000   1.0000   1.0000   1.0000   1.0000   1.0000   1.0000
     1.0000   1.0000   1.0000   1.0000   1.0000   1.0000   1.0000   1.0000
     1.0000   1.0000   1.0000   1.0000   1.0000   1.0000   1.0000   1.0000
     1.0000   1.0000   1.0000   1.0000   1.0000   1.0000   1.0000   1.0000
     1.0000   1.0000   1.0000   1.0000   1.0000   1.0000   1.0000   1.0000
     1.0000   1.0004   1.0004   1.0008   1.0022   1.0022   1.0030   1.0032
     1.0033   1.0110   1.0114   1.0114   1.0134   1.0244   1.0261   1.0261
     1.0339   1.0318   1.0282   1.0282   1.0179   1.0179   1.0104   0.9001
     0.7830   0.6702   0.5559   0.5559   0.4609   0.3941   0.3941   0.2658
     0.2486   0.0232  -0.0197  -0.0197  -0.0270  -0.0312  -0.0346  -0.0342
    -0.0333  -0.0333  -0.0167  -0.0167  -0.0145  -0.0111  -0.0084  -0.0081
    -0.0081  -0.0061  -0.0018  -0.0008  -0.0007  -0.0007  -0.0001  -0.0001
    -0.0001  -0.0000  -0.0000  -0.0000  -0.0000  -0.0000  -0.0000  -0.0000
    -0.0000  -0.0000  -0.0000  -0.0000  -0.0000  -0.0000

     the Fermi energy is    17.4492 ev

!    total energy              =   -6201.31048953 Ry
     Harris-Foulkes estimate   =   -6201.31048967 Ry
     estimated scf accuracy    <       0.00000038 Ry

     The total energy is the sum of the following terms:

     one-electron contribution =   -2626.10190716 Ry
     hartree contribution      =    1550.90822904 Ry
     xc contribution           =    -807.40355225 Ry
     ewald contribution        =   -4318.71624771 Ry
     smearing contrib. (-TS)   =       0.00298855 Ry

     total magnetization       =    -4.64 Bohr mag/cell
     absolute magnetization    =    41.73 Bohr mag/cell

     convergence has been achieved in  49 iterations

     Writing output data file mn-5.save/

     init_run     :    194.76s CPU    195.73s WALL (       1 calls)
     electrons    :  31792.98s CPU  31964.20s WALL (       1 calls)

     Called by init_run:
     wfcinit      :    188.39s CPU    188.87s WALL (       1 calls)
     wfcinit:atom :      0.21s CPU      0.21s WALL (      20 calls)
     wfcinit:wfcr :    186.77s CPU    187.24s WALL (      20 calls)
     potinit      :      1.03s CPU      1.07s WALL (       1 calls)
     hinit0       :      0.50s CPU      0.54s WALL (       1 calls)

     Called by electrons:
     c_bands      :  29077.02s CPU  29217.68s WALL (      49 calls)
     sum_band     :   2333.05s CPU   2353.05s WALL (      49 calls)
     v_of_rho     :     46.09s CPU     47.72s WALL (      50 calls)
     v_h          :      1.95s CPU      2.02s WALL (      50 calls)
     v_xc         :     44.14s CPU     45.70s WALL (      50 calls)
     newd         :    328.75s CPU    337.79s WALL (      50 calls)
     mix_rho      :      7.96s CPU      8.11s WALL (      49 calls)

     Called by c_bands:
     init_us_2    :     33.14s CPU     33.24s WALL (    1980 calls)
     cegterg      :  28907.71s CPU  29047.39s WALL (     980 calls)

     Called by sum_band:
     sum_band:bec :      4.28s CPU      4.29s WALL (     980 calls)
     addusdens    :    404.60s CPU    413.85s WALL (      49 calls)

     Called by *egterg:
     h_psi        :   8866.42s CPU   8927.30s WALL (    4116 calls)
     s_psi        :   3617.35s CPU   3619.35s WALL (    4116 calls)
     g_psi        :     10.65s CPU     10.68s WALL (    3116 calls)
     cdiaghg      :   2478.14s CPU   2481.39s WALL (    4096 calls)
     cegterg:over :   5492.07s CPU   5515.66s WALL (    3116 calls)
     cegterg:upda :   3866.88s CPU   3883.14s WALL (    3116 calls)
     cegterg:last :   2478.48s CPU   2479.22s WALL (     980 calls)

     Called by h_psi:
     h_psi:pot    :   8852.67s CPU   8899.88s WALL (    4116 calls)
     h_psi:calbec :   3598.33s CPU   3600.90s WALL (    4116 calls)
     vloc_psi     :   1651.80s CPU   1695.35s WALL (    4116 calls)
     add_vuspsi   :   3602.48s CPU   3603.60s WALL (    4116 calls)

     General routines
     calbec       :   5110.03s CPU   5113.71s WALL (    5096 calls)
     fft          :     35.47s CPU     36.79s WALL (    1244 calls)
     ffts         :      0.78s CPU      0.79s WALL (     198 calls)
     fftw         :   1810.77s CPU   1858.32s WALL ( 1485972 calls)
     interpolate  :      3.97s CPU      4.08s WALL (     100 calls)

     Parallel routines
     fft_scatt_xy :    212.97s CPU    218.20s WALL ( 1487414 calls)
     fft_scatt_yz :    781.64s CPU    805.04s WALL ( 1487414 calls)

     PWSCF        :      8h53m CPU      8h56m WALL


   This run was terminated on:  19:20:48   2Aug2022            

=------------------------------------------------------------------------------=
   JOB DONE.
=------------------------------------------------------------------------------=
