
     Program PWSCF v.6.4.1 starts on  2Aug2022 at 19:20:48 

     This program is part of the open-source Quantum ESPRESSO suite
     for quantum simulation of materials; please cite
         "P. Giannozzi et al., J. Phys.:Condens. Matter 21 395502 (2009);
         "P. Giannozzi et al., J. Phys.:Condens. Matter 29 465901 (2017);
          URL http://www.quantum-espresso.org", 
     in publications or presentations arising from this work. More details at
     http://www.quantum-espresso.org/quote

     Parallel version (MPI), running on     6 processors

     MPI processes distributed on     1 nodes
     R & G space division:  proc/nbgrp/npool/nimage =       6
     Reading input from mn-6.in

     Current dimensions of program PWSCF are:
     Max number of different atomic species (ntypx) = 10
     Max number of k-points (npk) =  40000
     Max angular momentum in pseudopotentials (lmaxx) =  3
               file Mn.pbe-spn-rrkjus_psl.0.3.1.UPF: wavefunction(s)  3D renormalized

     Subspace diagonalization in iterative solution of the eigenvalue problem:
     a serial algorithm will be used

     Message from routine setup:
     DEPRECATED: symmetry with ibrav=0, use correct ibrav instead

     Parallelization info
     --------------------
     sticks:   dense  smooth     PW     G-vecs:    dense   smooth      PW
     Min        1862     743    215               124461    31511    4898
     Max        1863     744    216               124463    31513    4899
     Sum       11175    4463   1291               746771   189073   29389



     bravais-lattice index     =            0
     lattice parameter (alat)  =      14.5833  a.u.
     unit-cell volume          =    2387.5141 (a.u.)^3
     number of atoms/cell      =           29
     number of atomic types    =            1
     number of electrons       =       435.00
     number of Kohn-Sham states=          262
     kinetic-energy cutoff     =      70.0000  Ry
     charge density cutoff     =     700.0000  Ry
     convergence threshold     =      1.0E-06
     mixing beta               =       0.7000
     number of iterations used =            8  plain     mixing
     Exchange-correlation      = PBE ( 1  4  3  4 0 0)

     celldm(1)=  14.583305  celldm(2)=   0.000000  celldm(3)=   0.000000
     celldm(4)=   0.000000  celldm(5)=   0.000000  celldm(6)=   0.000000

     crystal axes: (cart. coord. in units of alat)
               a(1) = (  -0.577350   0.577350   0.577350 )  
               a(2) = (   0.577350  -0.577350   0.577350 )  
               a(3) = (   0.577350   0.577350  -0.577350 )  

     reciprocal axes: (cart. coord. in units 2 pi/alat)
               b(1) = (  0.000000  0.866025  0.866025 )  
               b(2) = (  0.866025  0.000000  0.866025 )  
               b(3) = (  0.866025  0.866025  0.000000 )  


     PseudoPot. # 1 for Mn read from file:
     /home/cristian/Escritorio/Proyecto_Grafeno/pseudopotenciales/Mn.pbe-spn-rrkjus_psl.0.3.1.UPF
     MD5 check sum: e1cac159bdd2ba70c18e85765a5d4279
     Pseudo is Ultrasoft + core correction, Zval = 15.0
     Generated using "atomic" code by A. Dal Corso v.6.2.2
     Using radial grid of 1187 points,  6 beta functions with: 
                l(1) =   0
                l(2) =   0
                l(3) =   1
                l(4) =   1
                l(5) =   2
                l(6) =   2
     Q(r) pseudized with 0 coefficients 


     atomic species   valence    mass     pseudopotential
        Mn            15.00    54.93804     Mn( 1.00)

     Starting magnetic structure 
     atomic species   magnetization
        Mn           0.700

     24 Sym. Ops. (no inversion) found


                                    s                        frac. trans.

      isym =  1     identity                                     

 cryst.   s( 1) = (     1          0          0      )
                  (     0          1          0      )
                  (     0          0          1      )

 cart.    s( 1) = (  1.0000000  0.0000000  0.0000000 )
                  (  0.0000000  1.0000000  0.0000000 )
                  (  0.0000000  0.0000000  1.0000000 )


      isym =  2     180 deg rotation - cart. axis [0,0,1]        

 cryst.   s( 2) = (     0          1          0      )
                  (     1          0          0      )
                  (    -1         -1         -1      )

 cart.    s( 2) = ( -1.0000000  0.0000000  0.0000000 )
                  (  0.0000000 -1.0000000  0.0000000 )
                  (  0.0000000  0.0000000  1.0000000 )


      isym =  3     180 deg rotation - cart. axis [0,1,0]        

 cryst.   s( 3) = (     0          0          1      )
                  (    -1         -1         -1      )
                  (     1          0          0      )

 cart.    s( 3) = ( -1.0000000  0.0000000  0.0000000 )
                  (  0.0000000  1.0000000  0.0000000 )
                  (  0.0000000  0.0000000 -1.0000000 )


      isym =  4     180 deg rotation - cart. axis [1,0,0]        

 cryst.   s( 4) = (    -1         -1         -1      )
                  (     0          0          1      )
                  (     0          1          0      )

 cart.    s( 4) = (  1.0000000  0.0000000  0.0000000 )
                  (  0.0000000 -1.0000000  0.0000000 )
                  (  0.0000000  0.0000000 -1.0000000 )


      isym =  5     120 deg rotation - cart. axis [-1,-1,-1]     

 cryst.   s( 5) = (     0          0          1      )
                  (     1          0          0      )
                  (     0          1          0      )

 cart.    s( 5) = (  0.0000000  1.0000000  0.0000000 )
                  (  0.0000000  0.0000000  1.0000000 )
                  (  1.0000000  0.0000000  0.0000000 )


      isym =  6     120 deg rotation - cart. axis [-1,1,1]       

 cryst.   s( 6) = (     1          0          0      )
                  (     0          0          1      )
                  (    -1         -1         -1      )

 cart.    s( 6) = (  0.0000000 -1.0000000  0.0000000 )
                  (  0.0000000  0.0000000  1.0000000 )
                  ( -1.0000000  0.0000000  0.0000000 )


      isym =  7     120 deg rotation - cart. axis [1,1,-1]       

 cryst.   s( 7) = (     0          1          0      )
                  (    -1         -1         -1      )
                  (     0          0          1      )

 cart.    s( 7) = (  0.0000000  1.0000000  0.0000000 )
                  (  0.0000000  0.0000000 -1.0000000 )
                  ( -1.0000000  0.0000000  0.0000000 )


      isym =  8     120 deg rotation - cart. axis [1,-1,1]       

 cryst.   s( 8) = (    -1         -1         -1      )
                  (     0          1          0      )
                  (     1          0          0      )

 cart.    s( 8) = (  0.0000000 -1.0000000  0.0000000 )
                  (  0.0000000  0.0000000 -1.0000000 )
                  (  1.0000000  0.0000000  0.0000000 )


      isym =  9     120 deg rotation - cart. axis [1,1,1]        

 cryst.   s( 9) = (     0          1          0      )
                  (     0          0          1      )
                  (     1          0          0      )

 cart.    s( 9) = (  0.0000000  0.0000000  1.0000000 )
                  (  1.0000000  0.0000000  0.0000000 )
                  (  0.0000000  1.0000000  0.0000000 )


      isym = 10     120 deg rotation - cart. axis [-1,1,-1]      

 cryst.   s(10) = (     0          0          1      )
                  (     0          1          0      )
                  (    -1         -1         -1      )

 cart.    s(10) = (  0.0000000  0.0000000  1.0000000 )
                  ( -1.0000000  0.0000000  0.0000000 )
                  (  0.0000000 -1.0000000  0.0000000 )


      isym = 11     120 deg rotation - cart. axis [1,-1,-1]      

 cryst.   s(11) = (     1          0          0      )
                  (    -1         -1         -1      )
                  (     0          1          0      )

 cart.    s(11) = (  0.0000000  0.0000000 -1.0000000 )
                  ( -1.0000000  0.0000000  0.0000000 )
                  (  0.0000000  1.0000000  0.0000000 )


      isym = 12     120 deg rotation - cart. axis [-1,-1,1]      

 cryst.   s(12) = (    -1         -1         -1      )
                  (     1          0          0      )
                  (     0          0          1      )

 cart.    s(12) = (  0.0000000  0.0000000 -1.0000000 )
                  (  1.0000000  0.0000000  0.0000000 )
                  (  0.0000000 -1.0000000  0.0000000 )


      isym = 13     inv. 180 deg rotation - cart. axis [1,1,0]   

 cryst.   s(13) = (     1          0          0      )
                  (     0          1          0      )
                  (    -1         -1         -1      )

 cart.    s(13) = (  0.0000000 -1.0000000  0.0000000 )
                  ( -1.0000000  0.0000000  0.0000000 )
                  (  0.0000000  0.0000000  1.0000000 )


      isym = 14     inv. 180 deg rotation - cart. axis [1,-1,0]  

 cryst.   s(14) = (     0          1          0      )
                  (     1          0          0      )
                  (     0          0          1      )

 cart.    s(14) = (  0.0000000  1.0000000  0.0000000 )
                  (  1.0000000  0.0000000  0.0000000 )
                  (  0.0000000  0.0000000  1.0000000 )


      isym = 15     inv.  90 deg rotation - cart. axis [0,0,-1]  

 cryst.   s(15) = (    -1         -1         -1      )
                  (     0          0          1      )
                  (     1          0          0      )

 cart.    s(15) = (  0.0000000 -1.0000000  0.0000000 )
                  (  1.0000000  0.0000000  0.0000000 )
                  (  0.0000000  0.0000000 -1.0000000 )


      isym = 16     inv.  90 deg rotation - cart. axis [0,0,1]   

 cryst.   s(16) = (     0          0          1      )
                  (    -1         -1         -1      )
                  (     0          1          0      )

 cart.    s(16) = (  0.0000000  1.0000000  0.0000000 )
                  ( -1.0000000  0.0000000  0.0000000 )
                  (  0.0000000  0.0000000 -1.0000000 )


      isym = 17     inv. 180 deg rotation - cart. axis [1,0,1]   

 cryst.   s(17) = (     1          0          0      )
                  (    -1         -1         -1      )
                  (     0          0          1      )

 cart.    s(17) = (  0.0000000  0.0000000 -1.0000000 )
                  (  0.0000000  1.0000000  0.0000000 )
                  ( -1.0000000  0.0000000  0.0000000 )


      isym = 18     inv. 180 deg rotation - cart. axis [-1,0,1]  

 cryst.   s(18) = (     0          0          1      )
                  (     0          1          0      )
                  (     1          0          0      )

 cart.    s(18) = (  0.0000000  0.0000000  1.0000000 )
                  (  0.0000000  1.0000000  0.0000000 )
                  (  1.0000000  0.0000000  0.0000000 )


      isym = 19     inv.  90 deg rotation - cart. axis [0,1,0]   

 cryst.   s(19) = (    -1         -1         -1      )
                  (     1          0          0      )
                  (     0          1          0      )

 cart.    s(19) = (  0.0000000  0.0000000 -1.0000000 )
                  (  0.0000000 -1.0000000  0.0000000 )
                  (  1.0000000  0.0000000  0.0000000 )


      isym = 20     inv.  90 deg rotation - cart. axis [0,-1,0]  

 cryst.   s(20) = (     0          1          0      )
                  (     0          0          1      )
                  (    -1         -1         -1      )

 cart.    s(20) = (  0.0000000  0.0000000  1.0000000 )
                  (  0.0000000 -1.0000000  0.0000000 )
                  ( -1.0000000  0.0000000  0.0000000 )


      isym = 21     inv. 180 deg rotation - cart. axis [0,1,1]   

 cryst.   s(21) = (    -1         -1         -1      )
                  (     0          1          0      )
                  (     0          0          1      )

 cart.    s(21) = (  1.0000000  0.0000000  0.0000000 )
                  (  0.0000000  0.0000000 -1.0000000 )
                  (  0.0000000 -1.0000000  0.0000000 )


      isym = 22     inv. 180 deg rotation - cart. axis [0,1,-1]  

 cryst.   s(22) = (     1          0          0      )
                  (     0          0          1      )
                  (     0          1          0      )

 cart.    s(22) = (  1.0000000  0.0000000  0.0000000 )
                  (  0.0000000  0.0000000  1.0000000 )
                  (  0.0000000  1.0000000  0.0000000 )


      isym = 23     inv.  90 deg rotation - cart. axis [-1,0,0]  

 cryst.   s(23) = (     0          1          0      )
                  (    -1         -1         -1      )
                  (     1          0          0      )

 cart.    s(23) = ( -1.0000000  0.0000000  0.0000000 )
                  (  0.0000000  0.0000000 -1.0000000 )
                  (  0.0000000  1.0000000  0.0000000 )


      isym = 24     inv.  90 deg rotation - cart. axis [1,0,0]   

 cryst.   s(24) = (     0          0          1      )
                  (     1          0          0      )
                  (    -1         -1         -1      )

 cart.    s(24) = ( -1.0000000  0.0000000  0.0000000 )
                  (  0.0000000  0.0000000  1.0000000 )
                  (  0.0000000 -1.0000000  0.0000000 )


   Cartesian axes

     site n.     atom                  positions (alat units)
         1           Mn  tau(   1) = (   0.0000000   0.0000000   0.0000000  )
         2           Mn  tau(   2) = (   0.3670447   0.3670447   0.3670447  )
         3           Mn  tau(   3) = (   0.2103056   0.2103056  -0.2103056  )
         4           Mn  tau(   4) = (   0.2103056  -0.2103056   0.2103056  )
         5           Mn  tau(   5) = (  -0.2103056   0.2103056   0.2103056  )
         6           Mn  tau(   6) = (   0.4739122   0.4739122  -0.2517940  )
         7           Mn  tau(   7) = (   0.1034381   0.1034381   0.3255563  )
         8           Mn  tau(   8) = (   0.1034381  -0.1034381   0.8291443  )
         9           Mn  tau(   9) = (  -0.1034381   0.1034381   0.8291443  )
        10           Mn  tau(  10) = (  -0.2517940   0.4739122   0.4739122  )
        11           Mn  tau(  11) = (   0.3255563   0.1034381   0.1034381  )
        12           Mn  tau(  12) = (   0.8291443   0.1034381  -0.1034381  )
        13           Mn  tau(  13) = (   0.8291443  -0.1034381   0.1034381  )
        14           Mn  tau(  14) = (   0.4739122  -0.2517940   0.4739122  )
        15           Mn  tau(  15) = (   0.1034381   0.3255563   0.1034381  )
        16           Mn  tau(  16) = (  -0.1034381   0.8291443   0.1034381  )
        17           Mn  tau(  17) = (   0.1034381   0.8291443  -0.1034381  )
        18           Mn  tau(  18) = (   0.1650529   0.1650529   0.6172683  )
        19           Mn  tau(  19) = (   0.4122974   0.4122974   0.0399180  )
        20           Mn  tau(  20) = (  -0.1650529   0.1650529   0.5374323  )
        21           Mn  tau(  21) = (   0.1650529  -0.1650529   0.5374323  )
        22           Mn  tau(  22) = (   0.6172683   0.1650529   0.1650529  )
        23           Mn  tau(  23) = (   0.0399180   0.4122974   0.4122974  )
        24           Mn  tau(  24) = (   0.5374323  -0.1650529   0.1650529  )
        25           Mn  tau(  25) = (   0.5374323   0.1650529  -0.1650529  )
        26           Mn  tau(  26) = (   0.1650529   0.6172683   0.1650529  )
        27           Mn  tau(  27) = (   0.4122974   0.0399180   0.4122974  )
        28           Mn  tau(  28) = (   0.1650529   0.5374323  -0.1650529  )
        29           Mn  tau(  29) = (  -0.1650529   0.5374323   0.1650529  )

   Crystallographic axes

     site n.     atom                  positions (cryst. coord.)
         1           Mn  tau(   1) = (  0.0000000  0.0000000  0.0000000  )
         2           Mn  tau(   2) = (  0.6357400  0.6357400  0.6357400  )
         3           Mn  tau(   3) = (  0.0000000  0.0000000  0.3642600  )
         4           Mn  tau(   4) = (  0.0000000  0.3642600  0.0000000  )
         5           Mn  tau(   5) = (  0.3642600  0.0000000  0.0000000  )
         6           Mn  tau(   6) = (  0.1923600  0.1923600  0.8208400  )
         7           Mn  tau(   7) = (  0.3715200  0.3715200  0.1791600  )
         8           Mn  tau(   8) = (  0.6284800  0.8076400  0.0000000  )
         9           Mn  tau(   9) = (  0.8076400  0.6284800  0.0000000  )
        10           Mn  tau(  10) = (  0.8208400  0.1923600  0.1923600  )
        11           Mn  tau(  11) = (  0.1791600  0.3715200  0.3715200  )
        12           Mn  tau(  12) = (  0.0000000  0.6284800  0.8076400  )
        13           Mn  tau(  13) = (  0.0000000  0.8076400  0.6284800  )
        14           Mn  tau(  14) = (  0.1923600  0.8208400  0.1923600  )
        15           Mn  tau(  15) = (  0.3715200  0.1791600  0.3715200  )
        16           Mn  tau(  16) = (  0.8076400  0.0000000  0.6284800  )
        17           Mn  tau(  17) = (  0.6284800  0.0000000  0.8076400  )
        18           Mn  tau(  18) = (  0.6775100  0.6775100  0.2858800  )
        19           Mn  tau(  19) = (  0.3916300  0.3916300  0.7141200  )
        20           Mn  tau(  20) = (  0.6083700  0.3224900  0.0000000  )
        21           Mn  tau(  21) = (  0.3224900  0.6083700  0.0000000  )
        22           Mn  tau(  22) = (  0.2858800  0.6775100  0.6775100  )
        23           Mn  tau(  23) = (  0.7141200  0.3916300  0.3916300  )
        24           Mn  tau(  24) = (  0.0000000  0.6083700  0.3224900  )
        25           Mn  tau(  25) = (  0.0000000  0.3224900  0.6083700  )
        26           Mn  tau(  26) = (  0.6775100  0.2858800  0.6775100  )
        27           Mn  tau(  27) = (  0.3916300  0.7141200  0.3916300  )
        28           Mn  tau(  28) = (  0.3224900  0.0000000  0.6083700  )
        29           Mn  tau(  29) = (  0.6083700  0.0000000  0.3224900  )

     number of k points=    16  Methfessel-Paxton smearing, width (Ry)=  0.0300
                       cart. coord. in units 2pi/alat
        k(    1) = (   0.0000000   0.0000000   0.0000000), wk =   0.0046296
        k(    2) = (   0.1443376   0.1443376   0.0000000), wk =   0.0555556
        k(    3) = (   0.2886751   0.2886751   0.0000000), wk =   0.0555556
        k(    4) = (  -0.4330127  -0.4330127   0.0000000), wk =   0.0277778
        k(    5) = (   0.2886751   0.1443376   0.1443376), wk =   0.1111111
        k(    6) = (   0.4330127   0.2886751   0.1443376), wk =   0.2222222
        k(    7) = (   0.5773503   0.2886751   0.2886751), wk =   0.0370370
        k(    8) = (   0.2886751   0.2886751   0.2886751), wk =   0.0370370
        k(    9) = (   0.4330127   0.4330127   0.2886751), wk =   0.0555556
        k(   10) = (   0.0000000   0.0000000   0.2886751), wk =   0.0277778
        k(   11) = (  -0.0000000  -0.1443376   0.4330127), wk =   0.1111111
        k(   12) = (  -0.8660254  -0.2886751  -0.2886751), wk =   0.0555556
        k(   13) = (  -0.7216878  -0.1443376  -0.2886751), wk =   0.1111111
        k(   14) = (  -0.0000000  -0.0000000   0.5773503), wk =   0.0277778
        k(   15) = (  -0.8660254  -0.1443376  -0.1443376), wk =   0.0555556
        k(   16) = (  -0.8660254  -0.8660254  -0.8660254), wk =   0.0046296

                       cryst. coord.
        k(    1) = (   0.0000000   0.0000000   0.0000000), wk =   0.0046296
        k(    2) = (   0.0000000   0.0000000   0.1666667), wk =   0.0555556
        k(    3) = (   0.0000000   0.0000000   0.3333333), wk =   0.0555556
        k(    4) = (   0.0000000   0.0000000  -0.5000000), wk =   0.0277778
        k(    5) = (   0.0000000   0.1666667   0.1666667), wk =   0.1111111
        k(    6) = (   0.0000000   0.1666667   0.3333333), wk =   0.2222222
        k(    7) = (   0.0000000   0.3333333   0.3333333), wk =   0.0370370
        k(    8) = (   0.1666667   0.1666667   0.1666667), wk =   0.0370370
        k(    9) = (   0.1666667   0.1666667   0.3333333), wk =   0.0555556
        k(   10) = (   0.1666667   0.1666667  -0.1666667), wk =   0.0277778
        k(   11) = (   0.1666667   0.3333333  -0.3333333), wk =   0.1111111
        k(   12) = (   0.1666667  -0.5000000  -0.5000000), wk =   0.0555556
        k(   13) = (   0.1666667  -0.5000000  -0.3333333), wk =   0.1111111
        k(   14) = (   0.3333333   0.3333333  -0.3333333), wk =   0.0277778
        k(   15) = (   0.3333333  -0.5000000  -0.5000000), wk =   0.0555556
        k(   16) = (  -0.5000000  -0.5000000  -0.5000000), wk =   0.0046296

     Dense  grid:   746771 G-vectors     FFT dimensions: ( 125, 125, 125)

     Smooth grid:   189073 G-vectors     FFT dimensions: (  80,  80,  80)

     Dynamical RAM for                 wfc:      15.73 MB

     Dynamical RAM for     wfc (w. buffer):     519.13 MB

     Dynamical RAM for           str. fact:       1.90 MB

     Dynamical RAM for           local pot:       0.00 MB

     Dynamical RAM for          nlocal pot:      31.34 MB

     Dynamical RAM for                qrad:       4.92 MB

     Dynamical RAM for          rho,v,vnew:      26.42 MB

     Dynamical RAM for               rhoin:       8.81 MB

     Dynamical RAM for            rho*nmix:      60.77 MB

     Dynamical RAM for           G-vectors:       7.36 MB

     Dynamical RAM for          h,s,v(r/c):      50.28 MB

     Dynamical RAM for          <psi|beta>:       2.09 MB

     Dynamical RAM for                 psi:      62.93 MB

     Dynamical RAM for                hpsi:      62.93 MB

     Dynamical RAM for                spsi:      62.93 MB

     Dynamical RAM for      wfcinit/wfcrot:      36.75 MB

     Dynamical RAM for           addusdens:     410.21 MB

     Estimated static dynamical RAM per process >     679.47 MB

     Estimated max dynamical RAM per process >       1.06 GB

     Estimated total dynamical RAM >       6.38 GB
     Generating pointlists ...
     new r_m :   0.1207 (alat units)  1.7600 (a.u.) for type    1

     Check: negative core charge=   -0.000005

     Initial potential from superposition of free atoms

     starting charge  434.98555, renormalised to  435.00000
     Starting wfcs are  290 randomized atomic wfcs

     total cpu time spent up to now is      302.4 secs

     Self-consistent Calculation

     iteration #  1     ecut=    70.00 Ry     beta= 0.70
     Davidson diagonalization with overlap
     ethr =  1.00E-02,  avg # of iterations =  3.1

     total cpu time spent up to now is     1367.5 secs

     total energy              =   -6195.44630147 Ry
     Harris-Foulkes estimate   =   -6169.32278584 Ry
     estimated scf accuracy    <      36.51232389 Ry

     total magnetization       =    89.00 Bohr mag/cell
     absolute magnetization    =    95.85 Bohr mag/cell

     iteration #  2     ecut=    70.00 Ry     beta= 0.70
     Davidson diagonalization with overlap
     ethr =  8.39E-03,  avg # of iterations =  3.6

     total cpu time spent up to now is     2222.0 secs

     total energy              =   -6181.35684934 Ry
     Harris-Foulkes estimate   =   -6199.68282273 Ry
     estimated scf accuracy    <      47.66928055 Ry

     total magnetization       =    86.38 Bohr mag/cell
     absolute magnetization    =    89.74 Bohr mag/cell

     iteration #  3     ecut=    70.00 Ry     beta= 0.70
     Davidson diagonalization with overlap
     ethr =  8.39E-03,  avg # of iterations =  5.8

     total cpu time spent up to now is     3438.1 secs

     total energy              =   -6198.52548577 Ry
     Harris-Foulkes estimate   =   -6222.15779266 Ry
     estimated scf accuracy    <     164.45902099 Ry

     total magnetization       =    62.75 Bohr mag/cell
     absolute magnetization    =    66.37 Bohr mag/cell

     iteration #  4     ecut=    70.00 Ry     beta= 0.70
     Davidson diagonalization with overlap
     ethr =  8.39E-03,  avg # of iterations =  3.8

     total cpu time spent up to now is     4428.9 secs

     total energy              =   -6197.68733292 Ry
     Harris-Foulkes estimate   =   -6204.62293805 Ry
     estimated scf accuracy    <      81.22377530 Ry

     total magnetization       =    43.13 Bohr mag/cell
     absolute magnetization    =    49.72 Bohr mag/cell

     iteration #  5     ecut=    70.00 Ry     beta= 0.70
     Davidson diagonalization with overlap
     ethr =  8.39E-03,  avg # of iterations =  2.2

     total cpu time spent up to now is     5333.4 secs

     total energy              =   -6198.92162592 Ry
     Harris-Foulkes estimate   =   -6203.37379350 Ry
     estimated scf accuracy    <      74.35704630 Ry

     total magnetization       =    36.84 Bohr mag/cell
     absolute magnetization    =    47.08 Bohr mag/cell

     iteration #  6     ecut=    70.00 Ry     beta= 0.70
     Davidson diagonalization with overlap
     ethr =  8.39E-03,  avg # of iterations =  1.1

     total cpu time spent up to now is     6080.4 secs

     total energy              =   -6199.27006546 Ry
     Harris-Foulkes estimate   =   -6200.27622525 Ry
     estimated scf accuracy    <      28.54405510 Ry

     total magnetization       =    43.67 Bohr mag/cell
     absolute magnetization    =    53.96 Bohr mag/cell

     iteration #  7     ecut=    70.00 Ry     beta= 0.70
     Davidson diagonalization with overlap
     ethr =  6.56E-03,  avg # of iterations =  2.1

     total cpu time spent up to now is     6837.2 secs

     total energy              =   -6196.71099793 Ry
     Harris-Foulkes estimate   =   -6199.79340694 Ry
     estimated scf accuracy    <      19.10428260 Ry

     total magnetization       =    42.58 Bohr mag/cell
     absolute magnetization    =    54.39 Bohr mag/cell

     iteration #  8     ecut=    70.00 Ry     beta= 0.70
     Davidson diagonalization with overlap
     ethr =  4.39E-03,  avg # of iterations =  4.0

     total cpu time spent up to now is     8039.0 secs

     total energy              =   -6202.41342242 Ry
     Harris-Foulkes estimate   =   -6204.89190481 Ry
     estimated scf accuracy    <      68.97521480 Ry

     total magnetization       =    38.44 Bohr mag/cell
     absolute magnetization    =    40.48 Bohr mag/cell

     iteration #  9     ecut=    70.00 Ry     beta= 0.70
     Davidson diagonalization with overlap
     ethr =  4.39E-03,  avg # of iterations =  1.8

     total cpu time spent up to now is     8785.6 secs

     total energy              =   -6200.86507948 Ry
     Harris-Foulkes estimate   =   -6202.72603120 Ry
     estimated scf accuracy    <      42.37087813 Ry

     total magnetization       =    32.31 Bohr mag/cell
     absolute magnetization    =    36.91 Bohr mag/cell

     iteration # 10     ecut=    70.00 Ry     beta= 0.70
     Davidson diagonalization with overlap
     ethr =  4.39E-03,  avg # of iterations =  1.0

     total cpu time spent up to now is     9516.2 secs

     total energy              =   -6201.80673344 Ry
     Harris-Foulkes estimate   =   -6201.22891370 Ry
     estimated scf accuracy    <      13.98105601 Ry

     total magnetization       =    28.77 Bohr mag/cell
     absolute magnetization    =    38.40 Bohr mag/cell

     iteration # 11     ecut=    70.00 Ry     beta= 0.70
     Davidson diagonalization with overlap
     ethr =  3.21E-03,  avg # of iterations =  1.0

     total cpu time spent up to now is    10245.5 secs

     total energy              =   -6201.52744051 Ry
     Harris-Foulkes estimate   =   -6202.00181597 Ry
     estimated scf accuracy    <      30.93529592 Ry

     total magnetization       =    29.09 Bohr mag/cell
     absolute magnetization    =    36.04 Bohr mag/cell

     iteration # 12     ecut=    70.00 Ry     beta= 0.70
     Davidson diagonalization with overlap
     ethr =  3.21E-03,  avg # of iterations =  1.0

     total cpu time spent up to now is    10973.3 secs

     total energy              =   -6198.36767595 Ry
     Harris-Foulkes estimate   =   -6201.57725918 Ry
     estimated scf accuracy    <      23.92458769 Ry

     total magnetization       =    28.55 Bohr mag/cell
     absolute magnetization    =    36.42 Bohr mag/cell

     iteration # 13     ecut=    70.00 Ry     beta= 0.70
     Davidson diagonalization with overlap
     ethr =  3.21E-03,  avg # of iterations =  7.1

     total cpu time spent up to now is    11842.6 secs

     total energy              =   -6202.63983180 Ry
     Harris-Foulkes estimate   =   -6203.29598688 Ry
     estimated scf accuracy    <      22.38777166 Ry

     total magnetization       =    12.71 Bohr mag/cell
     absolute magnetization    =    34.45 Bohr mag/cell

     iteration # 14     ecut=    70.00 Ry     beta= 0.70
     Davidson diagonalization with overlap
     ethr =  3.21E-03,  avg # of iterations =  1.0

     total cpu time spent up to now is    12571.6 secs

     total energy              =   -6202.72084673 Ry
     Harris-Foulkes estimate   =   -6202.67788407 Ry
     estimated scf accuracy    <      19.97722932 Ry

     total magnetization       =    14.27 Bohr mag/cell
     absolute magnetization    =    34.56 Bohr mag/cell

     iteration # 15     ecut=    70.00 Ry     beta= 0.70
     Davidson diagonalization with overlap
     ethr =  3.21E-03,  avg # of iterations =  1.0

     total cpu time spent up to now is    13300.6 secs

     total energy              =   -6202.22004895 Ry
     Harris-Foulkes estimate   =   -6202.74158039 Ry
     estimated scf accuracy    <      20.70235942 Ry

     total magnetization       =    14.76 Bohr mag/cell
     absolute magnetization    =    34.40 Bohr mag/cell

     iteration # 16     ecut=    70.00 Ry     beta= 0.70
     Davidson diagonalization with overlap
     ethr =  3.21E-03,  avg # of iterations =  1.0

     total cpu time spent up to now is    14027.4 secs

     total energy              =   -6201.47597067 Ry
     Harris-Foulkes estimate   =   -6202.24284898 Ry
     estimated scf accuracy    <      18.87035160 Ry

     total magnetization       =    14.45 Bohr mag/cell
     absolute magnetization    =    34.27 Bohr mag/cell

     iteration # 17     ecut=    70.00 Ry     beta= 0.70
     Davidson diagonalization with overlap
     ethr =  3.21E-03,  avg # of iterations =  1.7

     total cpu time spent up to now is    14767.2 secs

     total energy              =   -6200.16094236 Ry
     Harris-Foulkes estimate   =   -6201.54446960 Ry
     estimated scf accuracy    <      14.32399987 Ry

     total magnetization       =    10.76 Bohr mag/cell
     absolute magnetization    =    32.86 Bohr mag/cell

     iteration # 18     ecut=    70.00 Ry     beta= 0.70
     Davidson diagonalization with overlap
     ethr =  3.21E-03,  avg # of iterations =  4.2

     total cpu time spent up to now is    15636.1 secs

     total energy              =   -6201.94234933 Ry
     Harris-Foulkes estimate   =   -6201.29233853 Ry
     estimated scf accuracy    <       2.89442469 Ry

     total magnetization       =     6.91 Bohr mag/cell
     absolute magnetization    =    33.95 Bohr mag/cell

     iteration # 19     ecut=    70.00 Ry     beta= 0.70
     Davidson diagonalization with overlap
     ethr =  6.65E-04,  avg # of iterations =  4.0

     total cpu time spent up to now is    16501.7 secs

     total energy              =   -6203.03820135 Ry
     Harris-Foulkes estimate   =   -6203.28011095 Ry
     estimated scf accuracy    <      21.33847336 Ry

     total magnetization       =     4.72 Bohr mag/cell
     absolute magnetization    =    33.58 Bohr mag/cell

     iteration # 20     ecut=    70.00 Ry     beta= 0.70
     Davidson diagonalization with overlap
     ethr =  6.65E-04,  avg # of iterations =  1.0

     total cpu time spent up to now is    17183.5 secs

     total energy              =   -6200.77238282 Ry
     Harris-Foulkes estimate   =   -6203.04556412 Ry
     estimated scf accuracy    <      20.32857695 Ry

     total magnetization       =     4.57 Bohr mag/cell
     absolute magnetization    =    33.63 Bohr mag/cell

     iteration # 21     ecut=    70.00 Ry     beta= 0.70
     Davidson diagonalization with overlap
     ethr =  6.65E-04,  avg # of iterations =  3.1

     total cpu time spent up to now is    17953.0 secs

     total energy              =   -6201.12957640 Ry
     Harris-Foulkes estimate   =   -6201.26817749 Ry
     estimated scf accuracy    <       0.98604525 Ry

     total magnetization       =     5.87 Bohr mag/cell
     absolute magnetization    =    33.02 Bohr mag/cell

     iteration # 22     ecut=    70.00 Ry     beta= 0.70
     Davidson diagonalization with overlap
     ethr =  2.27E-04,  avg # of iterations =  3.8

     total cpu time spent up to now is    18688.7 secs

     total energy              =   -6201.05388541 Ry
     Harris-Foulkes estimate   =   -6201.39398671 Ry
     estimated scf accuracy    <       5.30136885 Ry

     total magnetization       =     5.68 Bohr mag/cell
     absolute magnetization    =    33.17 Bohr mag/cell

     iteration # 23     ecut=    70.00 Ry     beta= 0.70
     Davidson diagonalization with overlap
     ethr =  2.27E-04,  avg # of iterations =  3.1

     total cpu time spent up to now is    19434.5 secs

     total energy              =   -6201.49334031 Ry
     Harris-Foulkes estimate   =   -6201.29931401 Ry
     estimated scf accuracy    <       1.23919379 Ry

     total magnetization       =     3.42 Bohr mag/cell
     absolute magnetization    =    34.04 Bohr mag/cell

     iteration # 24     ecut=    70.00 Ry     beta= 0.70
     Davidson diagonalization with overlap
     ethr =  2.27E-04,  avg # of iterations =  3.3

     total cpu time spent up to now is    20207.6 secs

     total energy              =   -6201.05915471 Ry
     Harris-Foulkes estimate   =   -6201.77342021 Ry
     estimated scf accuracy    <      11.21896146 Ry

     total magnetization       =    -1.07 Bohr mag/cell
     absolute magnetization    =    36.52 Bohr mag/cell

     iteration # 25     ecut=    70.00 Ry     beta= 0.70
     Davidson diagonalization with overlap
     ethr =  2.27E-04,  avg # of iterations =  3.2

     total cpu time spent up to now is    20942.5 secs

     total energy              =   -6201.30006808 Ry
     Harris-Foulkes estimate   =   -6201.30118375 Ry
     estimated scf accuracy    <       0.04055263 Ry

     total magnetization       =    -2.00 Bohr mag/cell
     absolute magnetization    =    36.92 Bohr mag/cell

     iteration # 26     ecut=    70.00 Ry     beta= 0.70
     Davidson diagonalization with overlap
     ethr =  9.32E-06,  avg # of iterations =  7.2

     total cpu time spent up to now is    22087.6 secs

     total energy              =   -6201.30154211 Ry
     Harris-Foulkes estimate   =   -6201.30999970 Ry
     estimated scf accuracy    <       0.10716060 Ry

     total magnetization       =    -2.95 Bohr mag/cell
     absolute magnetization    =    37.41 Bohr mag/cell

     iteration # 27     ecut=    70.00 Ry     beta= 0.70
     Davidson diagonalization with overlap
     ethr =  9.32E-06,  avg # of iterations =  2.0

     total cpu time spent up to now is    22786.6 secs

     total energy              =   -6201.31061711 Ry
     Harris-Foulkes estimate   =   -6201.30891740 Ry
     estimated scf accuracy    <       0.06549445 Ry

     total magnetization       =    -3.33 Bohr mag/cell
     absolute magnetization    =    37.97 Bohr mag/cell

     iteration # 28     ecut=    70.00 Ry     beta= 0.70
     Davidson diagonalization with overlap
     ethr =  9.32E-06,  avg # of iterations =  1.0

     total cpu time spent up to now is    23466.4 secs

     total energy              =   -6201.31290230 Ry
     Harris-Foulkes estimate   =   -6201.31176612 Ry
     estimated scf accuracy    <       0.14042495 Ry

     total magnetization       =    -3.60 Bohr mag/cell
     absolute magnetization    =    38.32 Bohr mag/cell

     iteration # 29     ecut=    70.00 Ry     beta= 0.70
     Davidson diagonalization with overlap
     ethr =  9.32E-06,  avg # of iterations =  1.1

     total cpu time spent up to now is    24146.4 secs

     total energy              =   -6201.30249352 Ry
     Harris-Foulkes estimate   =   -6201.31352800 Ry
     estimated scf accuracy    <       0.17153941 Ry

     total magnetization       =    -3.57 Bohr mag/cell
     absolute magnetization    =    38.62 Bohr mag/cell

     iteration # 30     ecut=    70.00 Ry     beta= 0.70
     Davidson diagonalization with overlap
     ethr =  9.32E-06,  avg # of iterations =  1.8

     total cpu time spent up to now is    24838.5 secs

     total energy              =   -6201.30798775 Ry
     Harris-Foulkes estimate   =   -6201.31027915 Ry
     estimated scf accuracy    <       0.05074221 Ry

     total magnetization       =    -3.38 Bohr mag/cell
     absolute magnetization    =    38.24 Bohr mag/cell

     iteration # 31     ecut=    70.00 Ry     beta= 0.70
     Davidson diagonalization with overlap
     ethr =  9.32E-06,  avg # of iterations =  1.0

     total cpu time spent up to now is    25516.4 secs

     total energy              =   -6201.30984283 Ry
     Harris-Foulkes estimate   =   -6201.30981420 Ry
     estimated scf accuracy    <       0.00398613 Ry

     total magnetization       =    -3.87 Bohr mag/cell
     absolute magnetization    =    38.53 Bohr mag/cell

     iteration # 32     ecut=    70.00 Ry     beta= 0.70
     Davidson diagonalization with overlap
     ethr =  9.16E-07,  avg # of iterations =  5.7

     total cpu time spent up to now is    26550.0 secs

     total energy              =   -6201.31185130 Ry
     Harris-Foulkes estimate   =   -6201.31220451 Ry
     estimated scf accuracy    <       0.10998919 Ry

     total magnetization       =    -4.37 Bohr mag/cell
     absolute magnetization    =    38.95 Bohr mag/cell

     iteration # 33     ecut=    70.00 Ry     beta= 0.70
     Davidson diagonalization with overlap
     ethr =  9.16E-07,  avg # of iterations =  1.0

     total cpu time spent up to now is    27228.1 secs

     total energy              =   -6201.30822678 Ry
     Harris-Foulkes estimate   =   -6201.31196927 Ry
     estimated scf accuracy    <       0.10637399 Ry

     total magnetization       =    -4.49 Bohr mag/cell
     absolute magnetization    =    38.99 Bohr mag/cell

     iteration # 34     ecut=    70.00 Ry     beta= 0.70
     Davidson diagonalization with overlap
     ethr =  9.16E-07,  avg # of iterations =  3.9

     total cpu time spent up to now is    28028.2 secs

     total energy              =   -6201.30944166 Ry
     Harris-Foulkes estimate   =   -6201.31033123 Ry
     estimated scf accuracy    <       0.00114221 Ry

     total magnetization       =    -4.15 Bohr mag/cell
     absolute magnetization    =    39.09 Bohr mag/cell

     iteration # 35     ecut=    70.00 Ry     beta= 0.70
     Davidson diagonalization with overlap
     ethr =  2.63E-07,  avg # of iterations =  4.2

     total cpu time spent up to now is    28957.3 secs

     total energy              =   -6201.30963778 Ry
     Harris-Foulkes estimate   =   -6201.31011108 Ry
     estimated scf accuracy    <       0.00062878 Ry

     total magnetization       =    -4.44 Bohr mag/cell
     absolute magnetization    =    39.48 Bohr mag/cell

     iteration # 36     ecut=    70.00 Ry     beta= 0.70
     Davidson diagonalization with overlap
     ethr =  1.45E-07,  avg # of iterations =  4.4

     total cpu time spent up to now is    29996.3 secs

     total energy              =   -6201.31010054 Ry
     Harris-Foulkes estimate   =   -6201.31018670 Ry
     estimated scf accuracy    <       0.00037836 Ry

     total magnetization       =    -4.74 Bohr mag/cell
     absolute magnetization    =    40.07 Bohr mag/cell

     iteration # 37     ecut=    70.00 Ry     beta= 0.70
     Davidson diagonalization with overlap
     ethr =  8.70E-08,  avg # of iterations =  3.6

     total cpu time spent up to now is    30843.4 secs

     total energy              =   -6201.31030194 Ry
     Harris-Foulkes estimate   =   -6201.31029634 Ry
     estimated scf accuracy    <       0.00031042 Ry

     total magnetization       =    -4.74 Bohr mag/cell
     absolute magnetization    =    40.31 Bohr mag/cell

     iteration # 38     ecut=    70.00 Ry     beta= 0.70
     Davidson diagonalization with overlap
     ethr =  7.14E-08,  avg # of iterations =  2.2

     total cpu time spent up to now is    31546.6 secs

     total energy              =   -6201.31035559 Ry
     Harris-Foulkes estimate   =   -6201.31034341 Ry
     estimated scf accuracy    <       0.00004184 Ry

     total magnetization       =    -4.79 Bohr mag/cell
     absolute magnetization    =    40.45 Bohr mag/cell

     iteration # 39     ecut=    70.00 Ry     beta= 0.70
     Davidson diagonalization with overlap
     ethr =  9.62E-09,  avg # of iterations =  4.0

     total cpu time spent up to now is    32599.1 secs

     total energy              =   -6201.31036643 Ry
     Harris-Foulkes estimate   =   -6201.31037255 Ry
     estimated scf accuracy    <       0.00005334 Ry

     total magnetization       =    -4.79 Bohr mag/cell
     absolute magnetization    =    40.54 Bohr mag/cell

     iteration # 40     ecut=    70.00 Ry     beta= 0.70
     Davidson diagonalization with overlap
     ethr =  9.62E-09,  avg # of iterations =  1.0

     total cpu time spent up to now is    33271.0 secs

     total energy              =   -6201.31036519 Ry
     Harris-Foulkes estimate   =   -6201.31036881 Ry
     estimated scf accuracy    <       0.00003409 Ry

     total magnetization       =    -4.77 Bohr mag/cell
     absolute magnetization    =    40.54 Bohr mag/cell

     iteration # 41     ecut=    70.00 Ry     beta= 0.70
     Davidson diagonalization with overlap
     ethr =  7.84E-09,  avg # of iterations =  1.0

     total cpu time spent up to now is    33945.5 secs

     total energy              =   -6201.31036976 Ry
     Harris-Foulkes estimate   =   -6201.31036563 Ry
     estimated scf accuracy    <       0.00002836 Ry

     total magnetization       =    -4.77 Bohr mag/cell
     absolute magnetization    =    40.52 Bohr mag/cell

     iteration # 42     ecut=    70.00 Ry     beta= 0.70
     Davidson diagonalization with overlap
     ethr =  6.52E-09,  avg # of iterations =  1.0

     total cpu time spent up to now is    34620.8 secs

     total energy              =   -6201.31037394 Ry
     Harris-Foulkes estimate   =   -6201.31037032 Ry
     estimated scf accuracy    <       0.00002350 Ry

     total magnetization       =    -4.77 Bohr mag/cell
     absolute magnetization    =    40.54 Bohr mag/cell

     iteration # 43     ecut=    70.00 Ry     beta= 0.70
     Davidson diagonalization with overlap
     ethr =  5.40E-09,  avg # of iterations =  4.1

     total cpu time spent up to now is    35706.3 secs

     total energy              =   -6201.31039392 Ry
     Harris-Foulkes estimate   =   -6201.31040210 Ry
     estimated scf accuracy    <       0.00005347 Ry

     total magnetization       =    -4.77 Bohr mag/cell
     absolute magnetization    =    40.70 Bohr mag/cell

     iteration # 44     ecut=    70.00 Ry     beta= 0.70
     Davidson diagonalization with overlap
     ethr =  5.40E-09,  avg # of iterations =  4.7

     total cpu time spent up to now is    36876.6 secs

     total energy              =   -6201.31043989 Ry
     Harris-Foulkes estimate   =   -6201.31043537 Ry
     estimated scf accuracy    <       0.00001831 Ry

     total magnetization       =    -4.80 Bohr mag/cell
     absolute magnetization    =    40.92 Bohr mag/cell

     iteration # 45     ecut=    70.00 Ry     beta= 0.70
     Davidson diagonalization with overlap
     ethr =  4.21E-09,  avg # of iterations =  3.0

     total cpu time spent up to now is    37612.5 secs

     total energy              =   -6201.31044293 Ry
     Harris-Foulkes estimate   =   -6201.31044469 Ry
     estimated scf accuracy    <       0.00000994 Ry

     total magnetization       =    -4.79 Bohr mag/cell
     absolute magnetization    =    40.99 Bohr mag/cell

     iteration # 46     ecut=    70.00 Ry     beta= 0.70
     Davidson diagonalization with overlap
     ethr =  2.29E-09,  avg # of iterations =  3.6

     total cpu time spent up to now is    38376.2 secs

     total energy              =   -6201.31044484 Ry
     Harris-Foulkes estimate   =   -6201.31044521 Ry
     estimated scf accuracy    <       0.00004842 Ry

     total magnetization       =    -4.78 Bohr mag/cell
     absolute magnetization    =    40.99 Bohr mag/cell

     iteration # 47     ecut=    70.00 Ry     beta= 0.70
     Davidson diagonalization with overlap
     ethr =  2.29E-09,  avg # of iterations =  1.5

     total cpu time spent up to now is    39058.7 secs

     total energy              =   -6201.31044695 Ry
     Harris-Foulkes estimate   =   -6201.31044573 Ry
     estimated scf accuracy    <       0.00001171 Ry

     total magnetization       =    -4.76 Bohr mag/cell
     absolute magnetization    =    41.00 Bohr mag/cell

     iteration # 48     ecut=    70.00 Ry     beta= 0.70
     Davidson diagonalization with overlap
     ethr =  2.29E-09,  avg # of iterations =  4.1

     total cpu time spent up to now is    40177.0 secs

     total energy              =   -6201.31046244 Ry
     Harris-Foulkes estimate   =   -6201.31046177 Ry
     estimated scf accuracy    <       0.00001822 Ry

     total magnetization       =    -4.75 Bohr mag/cell
     absolute magnetization    =    41.12 Bohr mag/cell

     iteration # 49     ecut=    70.00 Ry     beta= 0.70
     Davidson diagonalization with overlap
     ethr =  2.29E-09,  avg # of iterations =  1.0

     total cpu time spent up to now is    40851.4 secs

     total energy              =   -6201.31046559 Ry
     Harris-Foulkes estimate   =   -6201.31046273 Ry
     estimated scf accuracy    <       0.00001107 Ry

     total magnetization       =    -4.75 Bohr mag/cell
     absolute magnetization    =    41.14 Bohr mag/cell

     iteration # 50     ecut=    70.00 Ry     beta= 0.70
     Davidson diagonalization with overlap
     ethr =  2.29E-09,  avg # of iterations =  4.0

     total cpu time spent up to now is    41762.9 secs

     total energy              =   -6201.31047260 Ry
     Harris-Foulkes estimate   =   -6201.31047062 Ry
     estimated scf accuracy    <       0.00000907 Ry

     total magnetization       =    -4.74 Bohr mag/cell
     absolute magnetization    =    41.21 Bohr mag/cell

     iteration # 51     ecut=    70.00 Ry     beta= 0.70
     Davidson diagonalization with overlap
     ethr =  2.09E-09,  avg # of iterations =  2.5

     total cpu time spent up to now is    42525.3 secs

     total energy              =   -6201.31046689 Ry
     Harris-Foulkes estimate   =   -6201.31047528 Ry
     estimated scf accuracy    <       0.00001688 Ry

     total magnetization       =    -4.74 Bohr mag/cell
     absolute magnetization    =    41.26 Bohr mag/cell

     iteration # 52     ecut=    70.00 Ry     beta= 0.70
     Davidson diagonalization with overlap
     ethr =  2.09E-09,  avg # of iterations =  4.7

     total cpu time spent up to now is    43718.9 secs

     total energy              =   -6201.31045834 Ry
     Harris-Foulkes estimate   =   -6201.31048561 Ry
     estimated scf accuracy    <       0.00001084 Ry

     total magnetization       =    -4.71 Bohr mag/cell
     absolute magnetization    =    41.40 Bohr mag/cell

     iteration # 53     ecut=    70.00 Ry     beta= 0.70
     Davidson diagonalization with overlap
     ethr =  2.09E-09,  avg # of iterations =  5.0

     total cpu time spent up to now is    45062.3 secs

     total energy              =   -6201.31049309 Ry
     Harris-Foulkes estimate   =   -6201.31049481 Ry
     estimated scf accuracy    <       0.00000380 Ry

     total magnetization       =    -4.67 Bohr mag/cell
     absolute magnetization    =    41.60 Bohr mag/cell

     iteration # 54     ecut=    70.00 Ry     beta= 0.70
     Davidson diagonalization with overlap
     ethr =  8.74E-10,  avg # of iterations =  4.0

     Magnetic moment per site:
     atom:    1    charge:   12.6582    magn:    0.1142    constr:    0.0000
     atom:    2    charge:   12.6820    magn:   -2.9368    constr:    0.0000
     atom:    3    charge:   12.6820    magn:   -2.9368    constr:    0.0000
     atom:    4    charge:   12.6820    magn:   -2.9368    constr:    0.0000
     atom:    5    charge:   12.6820    magn:   -2.9368    constr:    0.0000
     atom:    6    charge:   12.8187    magn:   -0.7747    constr:    0.0000
     atom:    7    charge:   12.8187    magn:   -0.7747    constr:    0.0000
     atom:    8    charge:   12.8187    magn:   -0.7747    constr:    0.0000
     atom:    9    charge:   12.8187    magn:   -0.7747    constr:    0.0000
     atom:   10    charge:   12.8187    magn:   -0.7747    constr:    0.0000
     atom:   11    charge:   12.8187    magn:   -0.7747    constr:    0.0000
     atom:   12    charge:   12.8187    magn:   -0.7747    constr:    0.0000
     atom:   13    charge:   12.8187    magn:   -0.7747    constr:    0.0000
     atom:   14    charge:   12.8187    magn:   -0.7747    constr:    0.0000
     atom:   15    charge:   12.8187    magn:   -0.7747    constr:    0.0000
     atom:   16    charge:   12.8187    magn:   -0.7747    constr:    0.0000
     atom:   17    charge:   12.8187    magn:   -0.7747    constr:    0.0000
     atom:   18    charge:   12.7560    magn:    1.3907    constr:    0.0000
     atom:   19    charge:   12.7560    magn:    1.3907    constr:    0.0000
     atom:   20    charge:   12.7560    magn:    1.3907    constr:    0.0000
     atom:   21    charge:   12.7560    magn:    1.3907    constr:    0.0000
     atom:   22    charge:   12.7560    magn:    1.3907    constr:    0.0000
     atom:   23    charge:   12.7560    magn:    1.3907    constr:    0.0000
     atom:   24    charge:   12.7560    magn:    1.3907    constr:    0.0000
     atom:   25    charge:   12.7560    magn:    1.3907    constr:    0.0000
     atom:   26    charge:   12.7560    magn:    1.3907    constr:    0.0000
     atom:   27    charge:   12.7560    magn:    1.3907    constr:    0.0000
     atom:   28    charge:   12.7560    magn:    1.3907    constr:    0.0000
     atom:   29    charge:   12.7560    magn:    1.3907    constr:    0.0000

     total cpu time spent up to now is    46072.2 secs

     End of self-consistent calculation

 ------ SPIN UP ------------


          k = 0.0000 0.0000 0.0000 ( 23623 PWs)   bands (ev):

   -62.6468 -62.6222 -62.6222 -62.6222 -62.6135 -62.6135 -62.6007 -62.6007
   -62.6007 -62.5988 -62.5988 -62.5988 -61.8778 -61.3483 -61.3256 -61.3256
   -61.3256 -61.3003 -61.3003 -61.2513 -61.2513 -61.2513 -61.2257 -61.2257
   -61.2257 -59.9212 -59.9212 -59.9212 -59.9210 -31.4779 -31.4779 -31.4779
   -31.4697 -31.4697 -31.4685 -31.4685 -31.4685 -31.4382 -31.4382 -31.4382
   -31.4001 -31.3996 -31.3996 -31.3713 -31.3713 -31.3684 -31.3684 -31.3684
   -31.3627 -31.3349 -31.3349 -31.3349 -31.2744 -31.2744 -31.2744 -31.2511
   -31.2511 -31.2511 -31.1880 -31.1880 -31.1880 -31.1765 -31.1618 -31.1618
   -31.1618 -30.6054 -30.6054 -30.6054 -30.4458 -30.3739 -30.3739 -30.3739
   -30.3081 -30.3081 -30.1114 -30.1087 -30.1087 -30.1087 -30.0906 -30.0906
   -30.0906 -30.0766 -30.0766 -30.0766 -30.0560 -30.0560 -29.9352 -29.9352
   -29.9352 -29.9073 -29.8835 -29.8835 -29.8835 -29.8829 -29.8829 -29.8749
   -29.8749 -29.8749 -29.8742 -29.8742 -29.8742 -29.8158 -29.8158 -29.8158
   -28.7334 -28.7334 -28.7334 -28.7322 -28.7322 -28.7318 -28.7318 -28.7318
   -28.6741 -28.6741 -28.6741 -28.6734   9.4824  12.6991  12.6991  12.6991
    12.8518  12.8523  12.8523  12.8523  12.9055  12.9055  12.9055  12.9807
    12.9807  13.6032  13.7078  13.7078  13.7078  13.7790  13.7790  13.9749
    13.9749  13.9749  14.1467  14.2394  14.2394  14.2394  14.3879  14.4972
    14.4972  14.4972  14.5642  14.5642  14.8085  14.8085  14.8085  14.8629
    14.8629  14.8629  14.9510  14.9510  14.9510  15.0451  15.0482  15.0482
    15.2663  15.2663  15.2663  15.4064  15.4064  15.4064  15.4083  15.4083
    15.4083  15.5338  15.5348  15.5348  15.5348  15.5924  15.5924  15.6451
    15.6451  15.6451  15.8615  15.8615  15.8734  15.9054  15.9054  15.9054
    15.9551  15.9551  15.9551  16.0379  16.1144  16.1144  16.1144  16.2129
    16.2129  16.2129  16.2363  16.2363  16.4977  16.4977  16.7288  16.7288
    16.7288  16.7346  16.7346  16.7346  16.9887  16.9887  16.9887  17.0373
    17.2457  17.2457  17.3855  17.3855  17.3855  17.4527  17.4527  17.5339
    17.5339  17.5339  17.6280  17.6280  17.6280  17.7130  17.7130  17.7130
    17.7847  17.7847  17.7847  17.8522  17.8522  17.9432  17.9432  17.9432
    18.0467  18.0467  18.1556  18.1556  18.1556  18.4934  18.4934  18.4934
    18.5254  18.5254  18.5254  18.5729  18.5729  18.6922  18.6922  18.6922
    18.7670  18.7914  18.7914  18.7914  18.9182  19.0877  19.0877  19.0877
    19.1060  19.1060  19.1060  19.1968  19.2961  19.2961

     occupation numbers 
     1.0000   1.0000   1.0000   1.0000   1.0000   1.0000   1.0000   1.0000
     1.0000   1.0000   1.0000   1.0000   1.0000   1.0000   1.0000   1.0000
     1.0000   1.0000   1.0000   1.0000   1.0000   1.0000   1.0000   1.0000
     1.0000   1.0000   1.0000   1.0000   1.0000   1.0000   1.0000   1.0000
     1.0000   1.0000   1.0000   1.0000   1.0000   1.0000   1.0000   1.0000
     1.0000   1.0000   1.0000   1.0000   1.0000   1.0000   1.0000   1.0000
     1.0000   1.0000   1.0000   1.0000   1.0000   1.0000   1.0000   1.0000
     1.0000   1.0000   1.0000   1.0000   1.0000   1.0000   1.0000   1.0000
     1.0000   1.0000   1.0000   1.0000   1.0000   1.0000   1.0000   1.0000
     1.0000   1.0000   1.0000   1.0000   1.0000   1.0000   1.0000   1.0000
     1.0000   1.0000   1.0000   1.0000   1.0000   1.0000   1.0000   1.0000
     1.0000   1.0000   1.0000   1.0000   1.0000   1.0000   1.0000   1.0000
     1.0000   1.0000   1.0000   1.0000   1.0000   1.0000   1.0000   1.0000
     1.0000   1.0000   1.0000   1.0000   1.0000   1.0000   1.0000   1.0000
     1.0000   1.0000   1.0000   1.0000   1.0000   1.0000   1.0000   1.0000
     1.0000   1.0000   1.0000   1.0000   1.0000   1.0000   1.0000   1.0000
     1.0000   1.0000   1.0000   1.0000   1.0000   1.0000   1.0000   1.0000
     1.0000   1.0000   1.0000   1.0000   1.0000   1.0000   1.0000   1.0000
     1.0000   1.0000   1.0000   1.0000   1.0000   1.0000   1.0000   1.0000
     1.0000   1.0000   1.0000   1.0000   1.0000   1.0000   1.0000   1.0000
     1.0000   1.0000   1.0000   1.0000   1.0000   1.0000   1.0000   1.0000
     1.0000   1.0000   1.0000   1.0000   1.0000   1.0000   1.0000   1.0000
     1.0000   1.0000   1.0000   1.0000   1.0000   1.0000   1.0000   1.0000
     1.0000   1.0000   1.0000   1.0000   1.0000   1.0000   1.0000   1.0001
     1.0001   1.0001   1.0001   1.0001   1.0024   1.0024   1.0159   1.0159
     1.0159   1.0165   1.0165   1.0165   1.0337   1.0337   1.0337   1.0258
     0.8679   0.8679   0.6283   0.6283   0.6283   0.4906   0.4906   0.3267
     0.3267   0.3267   0.1643   0.1643   0.1643   0.0593   0.0593   0.0593
     0.0040   0.0040   0.0040  -0.0240  -0.0240  -0.0354  -0.0354  -0.0354
    -0.0291  -0.0291  -0.0171  -0.0171  -0.0171  -0.0009  -0.0009  -0.0009
    -0.0006  -0.0006  -0.0006  -0.0003  -0.0003  -0.0001  -0.0001  -0.0001
    -0.0000  -0.0000  -0.0000  -0.0000  -0.0000  -0.0000  -0.0000  -0.0000
    -0.0000  -0.0000  -0.0000  -0.0000  -0.0000  -0.0000

          k = 0.1443 0.1443 0.0000 ( 23676 PWs)   bands (ev):

   -62.6457 -62.6254 -62.6225 -62.6222 -62.6130 -62.6113 -62.6009 -62.6008
   -62.6007 -62.5988 -62.5988 -62.5988 -61.8778 -61.3487 -61.3255 -61.3255
   -61.3252 -61.3003 -61.3002 -61.2513 -61.2513 -61.2512 -61.2259 -61.2258
   -61.2258 -59.9212 -59.9212 -59.9212 -59.9210 -31.4806 -31.4795 -31.4782
   -31.4727 -31.4715 -31.4698 -31.4675 -31.4648 -31.4401 -31.4392 -31.4328
   -31.4011 -31.4006 -31.3986 -31.3865 -31.3791 -31.3657 -31.3634 -31.3575
   -31.3523 -31.3356 -31.3339 -31.3332 -31.2775 -31.2735 -31.2658 -31.2520
   -31.2518 -31.2510 -31.1900 -31.1889 -31.1871 -31.1754 -31.1678 -31.1625
   -31.1625 -30.6054 -30.6054 -30.6053 -30.4477 -30.3735 -30.3734 -30.3718
   -30.3089 -30.3080 -30.1149 -30.1098 -30.1085 -30.1049 -30.0913 -30.0902
   -30.0897 -30.0767 -30.0766 -30.0765 -30.0553 -30.0551 -29.9360 -29.9355
   -29.9351 -29.9065 -29.8878 -29.8871 -29.8843 -29.8838 -29.8828 -29.8756
   -29.8747 -29.8736 -29.8728 -29.8723 -29.8708 -29.8156 -29.8156 -29.8155
   -28.7335 -28.7335 -28.7334 -28.7326 -28.7325 -28.7317 -28.7316 -28.7314
   -28.6744 -28.6741 -28.6740 -28.6733   9.6019  12.0643  12.4620  12.5286
    12.5291  12.5735  12.8548  12.9541  13.1339  13.1446  13.2278  13.2602
    13.3600  13.6131  13.6306  13.6708  13.7048  13.7819  13.8058  13.9148
    13.9564  14.0289  14.1194  14.1948  14.2214  14.2315  14.4758  14.5157
    14.5458  14.5706  14.5990  14.6801  14.8055  14.8168  14.8287  14.8745
    14.8752  14.8876  14.9271  14.9498  14.9689  15.0713  15.0758  15.0873
    15.2449  15.2524  15.2773  15.3218  15.3783  15.3805  15.4007  15.4216
    15.4239  15.4511  15.4668  15.5227  15.5259  15.5660  15.6155  15.6486
    15.6543  15.7143  15.7442  15.7955  15.8113  15.8690  15.9143  15.9608
    15.9745  15.9913  16.0343  16.0715  16.1048  16.1112  16.1855  16.1991
    16.2273  16.2582  16.3013  16.3360  16.4853  16.5179  16.5911  16.6303
    16.6688  16.7346  16.7374  16.7645  16.9369  16.9468  17.0114  17.0489
    17.1445  17.1648  17.3188  17.3730  17.3846  17.4094  17.4621  17.5552
    17.5561  17.5915  17.6210  17.6385  17.6580  17.7064  17.7111  17.7283
    17.7787  17.8116  17.8447  17.8466  17.8609  17.9373  17.9756  18.0010
    18.0854  18.1318  18.1394  18.1947  18.2319  18.4192  18.4309  18.4752
    18.4783  18.5423  18.5722  18.6134  18.6185  18.6967  18.7276  18.7744
    18.7987  18.8038  18.8069  18.8288  18.8666  19.0003  19.0434  19.0590
    19.0831  19.1036  19.1367  19.2004  19.2706  19.2753

     occupation numbers 
     1.0000   1.0000   1.0000   1.0000   1.0000   1.0000   1.0000   1.0000
     1.0000   1.0000   1.0000   1.0000   1.0000   1.0000   1.0000   1.0000
     1.0000   1.0000   1.0000   1.0000   1.0000   1.0000   1.0000   1.0000
     1.0000   1.0000   1.0000   1.0000   1.0000   1.0000   1.0000   1.0000
     1.0000   1.0000   1.0000   1.0000   1.0000   1.0000   1.0000   1.0000
     1.0000   1.0000   1.0000   1.0000   1.0000   1.0000   1.0000   1.0000
     1.0000   1.0000   1.0000   1.0000   1.0000   1.0000   1.0000   1.0000
     1.0000   1.0000   1.0000   1.0000   1.0000   1.0000   1.0000   1.0000
     1.0000   1.0000   1.0000   1.0000   1.0000   1.0000   1.0000   1.0000
     1.0000   1.0000   1.0000   1.0000   1.0000   1.0000   1.0000   1.0000
     1.0000   1.0000   1.0000   1.0000   1.0000   1.0000   1.0000   1.0000
     1.0000   1.0000   1.0000   1.0000   1.0000   1.0000   1.0000   1.0000
     1.0000   1.0000   1.0000   1.0000   1.0000   1.0000   1.0000   1.0000
     1.0000   1.0000   1.0000   1.0000   1.0000   1.0000   1.0000   1.0000
     1.0000   1.0000   1.0000   1.0000   1.0000   1.0000   1.0000   1.0000
     1.0000   1.0000   1.0000   1.0000   1.0000   1.0000   1.0000   1.0000
     1.0000   1.0000   1.0000   1.0000   1.0000   1.0000   1.0000   1.0000
     1.0000   1.0000   1.0000   1.0000   1.0000   1.0000   1.0000   1.0000
     1.0000   1.0000   1.0000   1.0000   1.0000   1.0000   1.0000   1.0000
     1.0000   1.0000   1.0000   1.0000   1.0000   1.0000   1.0000   1.0000
     1.0000   1.0000   1.0000   1.0000   1.0000   1.0000   1.0000   1.0000
     1.0000   1.0000   1.0000   1.0000   1.0000   1.0000   1.0000   1.0000
     1.0000   1.0000   1.0000   1.0000   1.0000   1.0000   1.0000   1.0000
     1.0000   1.0000   1.0000   1.0000   1.0000   1.0000   1.0001   1.0001
     1.0001   1.0001   1.0003   1.0004   1.0021   1.0029   1.0057   1.0079
     1.0106   1.0165   1.0168   1.0196   1.0353   1.0355   1.0310   1.0227
     0.9743   0.9579   0.7539   0.6530   0.6301   0.5800   0.4711   0.2863
     0.2848   0.2222   0.1749   0.1490   0.1224   0.0659   0.0612   0.0450
     0.0075  -0.0097  -0.0219  -0.0225  -0.0263  -0.0353  -0.0348  -0.0333
    -0.0249  -0.0197  -0.0188  -0.0133  -0.0103  -0.0020  -0.0017  -0.0011
    -0.0010  -0.0005  -0.0003  -0.0002  -0.0002  -0.0001  -0.0000  -0.0000
    -0.0000  -0.0000  -0.0000  -0.0000  -0.0000  -0.0000  -0.0000  -0.0000
    -0.0000  -0.0000  -0.0000  -0.0000  -0.0000  -0.0000

          k = 0.2887 0.2887 0.0000 ( 23610 PWs)   bands (ev):

   -62.6428 -62.6309 -62.6231 -62.6223 -62.6119 -62.6084 -62.6014 -62.6011
   -62.6006 -62.5989 -62.5988 -62.5987 -61.8778 -61.3494 -61.3255 -61.3255
   -61.3245 -61.3004 -61.3001 -61.2513 -61.2512 -61.2509 -61.2261 -61.2260
   -61.2259 -59.9212 -59.9212 -59.9212 -59.9210 -31.4838 -31.4831 -31.4789
   -31.4779 -31.4727 -31.4709 -31.4675 -31.4600 -31.4437 -31.4409 -31.4221
   -31.4085 -31.4026 -31.3962 -31.3901 -31.3854 -31.3731 -31.3541 -31.3460
   -31.3420 -31.3368 -31.3313 -31.3285 -31.2847 -31.2715 -31.2540 -31.2535
   -31.2517 -31.2427 -31.1943 -31.1911 -31.1853 -31.1846 -31.1723 -31.1646
   -31.1642 -30.6056 -30.6054 -30.6053 -30.4511 -30.3725 -30.3722 -30.3676
   -30.3106 -30.3079 -30.1187 -30.1119 -30.1080 -30.1009 -30.0928 -30.0892
   -30.0884 -30.0771 -30.0764 -30.0763 -30.0540 -30.0533 -29.9374 -29.9362
   -29.9350 -29.9049 -29.8934 -29.8914 -29.8856 -29.8850 -29.8828 -29.8782
   -29.8748 -29.8724 -29.8701 -29.8693 -29.8665 -29.8154 -29.8152 -29.8151
   -28.7338 -28.7337 -28.7336 -28.7328 -28.7328 -28.7315 -28.7312 -28.7309
   -28.6749 -28.6740 -28.6738 -28.6732   9.9532  11.2465  12.2456  12.3172
    12.3174  12.3634  13.0325  13.0880  13.3058  13.3833  13.4352  13.4507
    13.5104  13.5510  13.6026  13.6664  13.7519  13.8035  13.8127  13.8754
    13.8892  14.0012  14.1370  14.2028  14.2421  14.2843  14.4805  14.5341
    14.5770  14.6424  14.6715  14.7585  14.7855  14.8007  14.8766  14.8919
    14.9115  14.9334  14.9710  15.0132  15.0522  15.0776  15.1050  15.1620
    15.1926  15.2072  15.2655  15.2711  15.2841  15.3026  15.3927  15.4290
    15.4632  15.4725  15.4795  15.5025  15.5078  15.5453  15.6101  15.6401
    15.6532  15.7562  15.7702  15.7728  15.8366  15.8618  15.8849  15.9353
    15.9616  15.9718  16.0444  16.0943  16.1222  16.1607  16.1824  16.2369
    16.2597  16.3287  16.3475  16.4040  16.4559  16.5408  16.5559  16.6204
    16.6239  16.7054  16.7207  16.7721  16.7725  16.8703  16.9124  16.9836
    17.0165  17.1152  17.1827  17.3155  17.3476  17.3995  17.4216  17.5060
    17.5245  17.5810  17.5989  17.6976  17.7011  17.7364  17.7470  17.7825
    17.8075  17.8183  17.8485  17.9364  17.9401  17.9603  18.0077  18.1565
    18.1609  18.1814  18.1989  18.2868  18.2969  18.3702  18.3923  18.4738
    18.5260  18.5524  18.5978  18.6032  18.6372  18.6425  18.7265  18.8229
    18.8318  18.8645  18.8886  18.9406  18.9408  18.9577  18.9689  19.0217
    19.1080  19.1321  19.1511  19.2138  19.2666  19.2767

     occupation numbers 
     1.0000   1.0000   1.0000   1.0000   1.0000   1.0000   1.0000   1.0000
     1.0000   1.0000   1.0000   1.0000   1.0000   1.0000   1.0000   1.0000
     1.0000   1.0000   1.0000   1.0000   1.0000   1.0000   1.0000   1.0000
     1.0000   1.0000   1.0000   1.0000   1.0000   1.0000   1.0000   1.0000
     1.0000   1.0000   1.0000   1.0000   1.0000   1.0000   1.0000   1.0000
     1.0000   1.0000   1.0000   1.0000   1.0000   1.0000   1.0000   1.0000
     1.0000   1.0000   1.0000   1.0000   1.0000   1.0000   1.0000   1.0000
     1.0000   1.0000   1.0000   1.0000   1.0000   1.0000   1.0000   1.0000
     1.0000   1.0000   1.0000   1.0000   1.0000   1.0000   1.0000   1.0000
     1.0000   1.0000   1.0000   1.0000   1.0000   1.0000   1.0000   1.0000
     1.0000   1.0000   1.0000   1.0000   1.0000   1.0000   1.0000   1.0000
     1.0000   1.0000   1.0000   1.0000   1.0000   1.0000   1.0000   1.0000
     1.0000   1.0000   1.0000   1.0000   1.0000   1.0000   1.0000   1.0000
     1.0000   1.0000   1.0000   1.0000   1.0000   1.0000   1.0000   1.0000
     1.0000   1.0000   1.0000   1.0000   1.0000   1.0000   1.0000   1.0000
     1.0000   1.0000   1.0000   1.0000   1.0000   1.0000   1.0000   1.0000
     1.0000   1.0000   1.0000   1.0000   1.0000   1.0000   1.0000   1.0000
     1.0000   1.0000   1.0000   1.0000   1.0000   1.0000   1.0000   1.0000
     1.0000   1.0000   1.0000   1.0000   1.0000   1.0000   1.0000   1.0000
     1.0000   1.0000   1.0000   1.0000   1.0000   1.0000   1.0000   1.0000
     1.0000   1.0000   1.0000   1.0000   1.0000   1.0000   1.0000   1.0000
     1.0000   1.0000   1.0000   1.0000   1.0000   1.0000   1.0000   1.0000
     1.0000   1.0000   1.0000   1.0000   1.0000   1.0000   1.0000   1.0000
     1.0000   1.0000   1.0000   1.0000   1.0000   1.0000   1.0001   1.0001
     1.0002   1.0004   1.0005   1.0009   1.0016   1.0036   1.0042   1.0073
     1.0075   1.0137   1.0151   1.0205   1.0205   1.0312   1.0344   1.0342
     1.0301   0.9940   0.9414   0.7596   0.7017   0.6001   0.5550   0.3814
     0.3448   0.2402   0.2099   0.0750   0.0714   0.0380   0.0294   0.0052
    -0.0078  -0.0125  -0.0230  -0.0353  -0.0354  -0.0353  -0.0328  -0.0170
    -0.0166  -0.0146  -0.0130  -0.0067  -0.0061  -0.0032  -0.0026  -0.0011
    -0.0006  -0.0004  -0.0003  -0.0002  -0.0002  -0.0001  -0.0000  -0.0000
    -0.0000  -0.0000  -0.0000  -0.0000  -0.0000  -0.0000  -0.0000  -0.0000
    -0.0000  -0.0000  -0.0000  -0.0000  -0.0000  -0.0000

          k =-0.4330-0.4330 0.0000 ( 23636 PWs)   bands (ev):

   -62.6398 -62.6348 -62.6234 -62.6223 -62.6114 -62.6072 -62.6016 -62.6013
   -62.6006 -62.5989 -62.5988 -62.5987 -61.8778 -61.3498 -61.3255 -61.3255
   -61.3242 -61.3005 -61.3000 -61.2513 -61.2511 -61.2507 -61.2263 -61.2261
   -61.2259 -59.9212 -59.9212 -59.9212 -59.9211 -31.4848 -31.4847 -31.4807
   -31.4795 -31.4732 -31.4708 -31.4679 -31.4578 -31.4455 -31.4417 -31.4159
   -31.4121 -31.4052 -31.3940 -31.3888 -31.3877 -31.3788 -31.3497 -31.3415
   -31.3392 -31.3375 -31.3296 -31.3247 -31.2892 -31.2704 -31.2552 -31.2543
   -31.2513 -31.2232 -31.2017 -31.1966 -31.1923 -31.1842 -31.1695 -31.1669
   -31.1652 -30.6057 -30.6054 -30.6053 -30.4527 -30.3721 -30.3716 -30.3657
   -30.3115 -30.3078 -30.1203 -30.1129 -30.1078 -30.0995 -30.0935 -30.0887
   -30.0875 -30.0772 -30.0761 -30.0761 -30.0534 -30.0524 -29.9381 -29.9366
   -29.9349 -29.9041 -29.8956 -29.8931 -29.8863 -29.8853 -29.8829 -29.8795
   -29.8748 -29.8719 -29.8691 -29.8680 -29.8648 -29.8152 -29.8151 -29.8148
   -28.7339 -28.7338 -28.7336 -28.7330 -28.7328 -28.7314 -28.7310 -28.7308
   -28.6751 -28.6740 -28.6737 -28.6731  10.4836  10.5485  12.1671  12.2408
    12.2420  12.2883  13.2404  13.2491  13.2762  13.3034  13.3862  13.4563
    13.5393  13.5558  13.7217  13.7476  13.7512  13.7632  13.8376  13.8759
    13.9077  14.0241  14.0769  14.2267  14.2735  14.3292  14.3788  14.4923
    14.5763  14.6148  14.7906  14.7949  14.8103  14.8282  14.8470  14.8834
    14.9323  14.9538  14.9924  15.0468  15.0776  15.0857  15.1504  15.1522
    15.1671  15.2065  15.2182  15.2402  15.2563  15.3070  15.3806  15.4137
    15.4375  15.4522  15.4879  15.5091  15.5894  15.6069  15.6696  15.6940
    15.7099  15.7190  15.7746  15.7960  15.7982  15.8308  15.8342  15.9086
    16.0020  16.0186  16.0305  16.0401  16.1297  16.2094  16.2124  16.2650
    16.2768  16.3179  16.3442  16.3512  16.4567  16.4638  16.5339  16.6434
    16.7067  16.7123  16.7407  16.7645  16.7750  16.7778  16.8375  16.8884
    16.9721  17.1120  17.1356  17.3087  17.3175  17.3861  17.3998  17.4634
    17.4772  17.5442  17.6073  17.6266  17.7281  17.7481  17.8013  17.8119
    17.8210  17.8287  17.8891  17.9484  17.9566  18.0224  18.0306  18.0660
    18.1442  18.2190  18.2733  18.3227  18.3943  18.4261  18.4385  18.4892
    18.5423  18.5445  18.5709  18.6023  18.7150  18.7251  18.7335  18.7437
    18.8603  18.8726  18.8970  18.9195  18.9313  18.9858  19.0225  19.0230
    19.1111  19.1373  19.1795  19.2249  19.2518  19.3134

     occupation numbers 
     1.0000   1.0000   1.0000   1.0000   1.0000   1.0000   1.0000   1.0000
     1.0000   1.0000   1.0000   1.0000   1.0000   1.0000   1.0000   1.0000
     1.0000   1.0000   1.0000   1.0000   1.0000   1.0000   1.0000   1.0000
     1.0000   1.0000   1.0000   1.0000   1.0000   1.0000   1.0000   1.0000
     1.0000   1.0000   1.0000   1.0000   1.0000   1.0000   1.0000   1.0000
     1.0000   1.0000   1.0000   1.0000   1.0000   1.0000   1.0000   1.0000
     1.0000   1.0000   1.0000   1.0000   1.0000   1.0000   1.0000   1.0000
     1.0000   1.0000   1.0000   1.0000   1.0000   1.0000   1.0000   1.0000
     1.0000   1.0000   1.0000   1.0000   1.0000   1.0000   1.0000   1.0000
     1.0000   1.0000   1.0000   1.0000   1.0000   1.0000   1.0000   1.0000
     1.0000   1.0000   1.0000   1.0000   1.0000   1.0000   1.0000   1.0000
     1.0000   1.0000   1.0000   1.0000   1.0000   1.0000   1.0000   1.0000
     1.0000   1.0000   1.0000   1.0000   1.0000   1.0000   1.0000   1.0000
     1.0000   1.0000   1.0000   1.0000   1.0000   1.0000   1.0000   1.0000
     1.0000   1.0000   1.0000   1.0000   1.0000   1.0000   1.0000   1.0000
     1.0000   1.0000   1.0000   1.0000   1.0000   1.0000   1.0000   1.0000
     1.0000   1.0000   1.0000   1.0000   1.0000   1.0000   1.0000   1.0000
     1.0000   1.0000   1.0000   1.0000   1.0000   1.0000   1.0000   1.0000
     1.0000   1.0000   1.0000   1.0000   1.0000   1.0000   1.0000   1.0000
     1.0000   1.0000   1.0000   1.0000   1.0000   1.0000   1.0000   1.0000
     1.0000   1.0000   1.0000   1.0000   1.0000   1.0000   1.0000   1.0000
     1.0000   1.0000   1.0000   1.0000   1.0000   1.0000   1.0000   1.0000
     1.0000   1.0000   1.0000   1.0000   1.0000   1.0000   1.0000   1.0000
     1.0000   1.0000   1.0000   1.0000   1.0000   1.0001   1.0001   1.0002
     1.0002   1.0003   1.0004   1.0005   1.0016   1.0017   1.0034   1.0087
     1.0138   1.0143   1.0171   1.0196   1.0208   1.0211   1.0278   1.0328
     1.0349   0.9959   0.9808   0.7713   0.7562   0.6270   0.5996   0.4684
     0.4401   0.3070   0.1963   0.1663   0.0452   0.0286  -0.0049  -0.0098
    -0.0136  -0.0166  -0.0316  -0.0355  -0.0354  -0.0315  -0.0308  -0.0270
    -0.0183  -0.0113  -0.0075  -0.0049  -0.0025  -0.0018  -0.0016  -0.0009
    -0.0005  -0.0005  -0.0004  -0.0002  -0.0001  -0.0000  -0.0000  -0.0000
    -0.0000  -0.0000  -0.0000  -0.0000  -0.0000  -0.0000  -0.0000  -0.0000
    -0.0000  -0.0000  -0.0000  -0.0000  -0.0000  -0.0000

          k = 0.2887 0.1443 0.1443 ( 23629 PWs)   bands (ev):

   -62.6437 -62.6289 -62.6253 -62.6202 -62.6127 -62.6088 -62.6013 -62.6009
   -62.6008 -62.5989 -62.5988 -62.5987 -61.8778 -61.3492 -61.3255 -61.3254
   -61.3248 -61.3004 -61.3001 -61.2513 -61.2511 -61.2510 -61.2260 -61.2260
   -61.2259 -59.9212 -59.9212 -59.9212 -59.9210 -31.4833 -31.4816 -31.4785
   -31.4752 -31.4743 -31.4707 -31.4682 -31.4608 -31.4465 -31.4344 -31.4271
   -31.4079 -31.4023 -31.3964 -31.3906 -31.3794 -31.3710 -31.3614 -31.3461
   -31.3443 -31.3354 -31.3344 -31.3284 -31.2869 -31.2645 -31.2552 -31.2533
   -31.2519 -31.2507 -31.1944 -31.1884 -31.1866 -31.1792 -31.1734 -31.1639
   -31.1639 -30.6055 -30.6054 -30.6053 -30.4503 -30.3726 -30.3723 -30.3690
   -30.3099 -30.3081 -30.1176 -30.1112 -30.1093 -30.1011 -30.0918 -30.0904
   -30.0883 -30.0768 -30.0767 -30.0764 -30.0543 -30.0538 -29.9371 -29.9358
   -29.9353 -29.9052 -29.8914 -29.8907 -29.8863 -29.8845 -29.8839 -29.8758
   -29.8743 -29.8725 -29.8722 -29.8689 -29.8680 -29.8154 -29.8153 -29.8152
   -28.7337 -28.7336 -28.7335 -28.7329 -28.7327 -28.7315 -28.7313 -28.7311
   -28.6748 -28.6739 -28.6739 -28.6732   9.8373  11.6950  11.7469  12.2325
    12.6430  12.6804  12.9816  13.0288  13.2497  13.2513  13.3991  13.4420
    13.5018  13.5425  13.6310  13.6639  13.7138  13.7817  13.8297  13.8518
    13.9497  13.9694  14.1659  14.1907  14.2525  14.2604  14.4950  14.5415
    14.5835  14.5986  14.6587  14.7670  14.8126  14.8152  14.8258  14.8672
    14.8784  14.9414  14.9415  14.9969  15.0216  15.0789  15.1123  15.1388
    15.2259  15.2336  15.2641  15.2723  15.3063  15.3102  15.3922  15.4292
    15.4294  15.4759  15.4810  15.5036  15.5302  15.5481  15.5705  15.6485
    15.6813  15.7333  15.7582  15.7795  15.8222  15.8379  15.8721  15.9206
    15.9684  16.0274  16.0359  16.1109  16.1447  16.1723  16.1845  16.2231
    16.2376  16.3152  16.3427  16.3856  16.4558  16.5238  16.5691  16.5793
    16.6241  16.6976  16.7637  16.7752  16.8500  16.9047  16.9079  16.9743
    17.0568  17.1118  17.2627  17.2629  17.3794  17.4192  17.4368  17.5272
    17.5487  17.5552  17.6342  17.6378  17.6830  17.7213  17.7480  17.7802
    17.7881  17.8333  17.8702  17.9080  17.9197  17.9843  17.9846  18.0807
    18.1797  18.1988  18.2353  18.2388  18.2700  18.3786  18.3942  18.4391
    18.4478  18.5544  18.5875  18.5914  18.6482  18.7097  18.7402  18.8070
    18.8243  18.8314  18.8583  18.9097  18.9368  18.9434  18.9981  19.0334
    19.0958  19.1125  19.1774  19.2045  19.2184  19.2878

     occupation numbers 
     1.0000   1.0000   1.0000   1.0000   1.0000   1.0000   1.0000   1.0000
     1.0000   1.0000   1.0000   1.0000   1.0000   1.0000   1.0000   1.0000
     1.0000   1.0000   1.0000   1.0000   1.0000   1.0000   1.0000   1.0000
     1.0000   1.0000   1.0000   1.0000   1.0000   1.0000   1.0000   1.0000
     1.0000   1.0000   1.0000   1.0000   1.0000   1.0000   1.0000   1.0000
     1.0000   1.0000   1.0000   1.0000   1.0000   1.0000   1.0000   1.0000
     1.0000   1.0000   1.0000   1.0000   1.0000   1.0000   1.0000   1.0000
     1.0000   1.0000   1.0000   1.0000   1.0000   1.0000   1.0000   1.0000
     1.0000   1.0000   1.0000   1.0000   1.0000   1.0000   1.0000   1.0000
     1.0000   1.0000   1.0000   1.0000   1.0000   1.0000   1.0000   1.0000
     1.0000   1.0000   1.0000   1.0000   1.0000   1.0000   1.0000   1.0000
     1.0000   1.0000   1.0000   1.0000   1.0000   1.0000   1.0000   1.0000
     1.0000   1.0000   1.0000   1.0000   1.0000   1.0000   1.0000   1.0000
     1.0000   1.0000   1.0000   1.0000   1.0000   1.0000   1.0000   1.0000
     1.0000   1.0000   1.0000   1.0000   1.0000   1.0000   1.0000   1.0000
     1.0000   1.0000   1.0000   1.0000   1.0000   1.0000   1.0000   1.0000
     1.0000   1.0000   1.0000   1.0000   1.0000   1.0000   1.0000   1.0000
     1.0000   1.0000   1.0000   1.0000   1.0000   1.0000   1.0000   1.0000
     1.0000   1.0000   1.0000   1.0000   1.0000   1.0000   1.0000   1.0000
     1.0000   1.0000   1.0000   1.0000   1.0000   1.0000   1.0000   1.0000
     1.0000   1.0000   1.0000   1.0000   1.0000   1.0000   1.0000   1.0000
     1.0000   1.0000   1.0000   1.0000   1.0000   1.0000   1.0000   1.0000
     1.0000   1.0000   1.0000   1.0000   1.0000   1.0000   1.0000   1.0000
     1.0000   1.0000   1.0000   1.0000   1.0000   1.0000   1.0001   1.0001
     1.0001   1.0003   1.0004   1.0007   1.0016   1.0031   1.0047   1.0052
     1.0075   1.0130   1.0196   1.0208   1.0292   1.0339   1.0341   1.0348
     1.0203   0.9960   0.8441   0.8438   0.6404   0.5599   0.5236   0.3395
     0.2985   0.2864   0.1552   0.1500   0.0914   0.0513   0.0286   0.0066
     0.0021  -0.0182  -0.0283  -0.0338  -0.0346  -0.0344  -0.0344  -0.0254
    -0.0147  -0.0130  -0.0100  -0.0097  -0.0077  -0.0029  -0.0025  -0.0016
    -0.0014  -0.0004  -0.0003  -0.0003  -0.0001  -0.0001  -0.0000  -0.0000
    -0.0000  -0.0000  -0.0000  -0.0000  -0.0000  -0.0000  -0.0000  -0.0000
    -0.0000  -0.0000  -0.0000  -0.0000  -0.0000  -0.0000

          k = 0.4330 0.2887 0.1443 ( 23609 PWs)   bands (ev):

   -62.6402 -62.6337 -62.6268 -62.6188 -62.6127 -62.6068 -62.6017 -62.6011
   -62.6007 -62.5989 -62.5988 -62.5987 -61.8778 -61.3498 -61.3255 -61.3252
   -61.3244 -61.3004 -61.3001 -61.2513 -61.2511 -61.2508 -61.2262 -61.2261
   -61.2260 -59.9212 -59.9212 -59.9212 -59.9211 -31.4843 -31.4827 -31.4796
   -31.4792 -31.4756 -31.4731 -31.4678 -31.4577 -31.4509 -31.4326 -31.4190
   -31.4143 -31.4063 -31.3940 -31.3882 -31.3798 -31.3785 -31.3570 -31.3397
   -31.3388 -31.3366 -31.3328 -31.3213 -31.2971 -31.2594 -31.2550 -31.2545
   -31.2504 -31.2310 -31.1989 -31.1985 -31.1891 -31.1852 -31.1703 -31.1663
   -31.1656 -30.6056 -30.6054 -30.6053 -30.4527 -30.3718 -30.3709 -30.3667
   -30.3108 -30.3084 -30.1193 -30.1138 -30.1094 -30.0984 -30.0922 -30.0890
   -30.0878 -30.0770 -30.0765 -30.0762 -30.0532 -30.0526 -29.9378 -29.9365
   -29.9353 -29.9041 -29.8945 -29.8929 -29.8888 -29.8856 -29.8845 -29.8766
   -29.8740 -29.8715 -29.8694 -29.8679 -29.8658 -29.8152 -29.8151 -29.8149
   -28.7339 -28.7339 -28.7336 -28.7330 -28.7329 -28.7313 -28.7311 -28.7308
   -28.6751 -28.6739 -28.6736 -28.6732  10.2933  10.9427  11.5386  12.0729
    12.5306  12.8741  12.9406  13.1911  13.3277  13.3696  13.4325  13.4821
    13.5391  13.5665  13.6508  13.6975  13.7220  13.7789  13.8403  13.8940
    13.9150  13.9690  14.1487  14.2449  14.2585  14.2994  14.4472  14.5172
    14.5679  14.6272  14.6956  14.7252  14.7811  14.8148  14.8598  14.9175
    14.9303  14.9807  14.9937  15.0372  15.0730  15.0876  15.1399  15.1621
    15.1817  15.1962  15.2276  15.2517  15.2859  15.3589  15.3765  15.3944
    15.4277  15.4545  15.4790  15.5245  15.5622  15.5926  15.6395  15.6576
    15.7131  15.7245  15.7579  15.7853  15.8071  15.8458  15.8784  15.9348
    15.9633  16.0132  16.0482  16.0866  16.1133  16.1900  16.1991  16.2536
    16.2900  16.3344  16.3450  16.3878  16.4419  16.5058  16.5207  16.6442
    16.6721  16.6817  16.7133  16.7592  16.7821  16.7966  16.8210  16.8983
    16.9936  17.1184  17.1686  17.2606  17.3286  17.3934  17.4072  17.4586
    17.4939  17.5441  17.5595  17.6210  17.6457  17.7216  17.7647  17.8311
    17.8600  17.8870  17.9345  17.9486  17.9892  18.0266  18.0497  18.0940
    18.1421  18.2443  18.2790  18.2940  18.3616  18.3969  18.4314  18.4962
    18.5290  18.5523  18.6040  18.6357  18.6650  18.6966  18.7155  18.7911
    18.8616  18.8692  18.8934  18.9177  18.9252  18.9640  19.0204  19.0673
    19.0849  19.1342  19.1963  19.2335  19.2452  19.2665

     occupation numbers 
     1.0000   1.0000   1.0000   1.0000   1.0000   1.0000   1.0000   1.0000
     1.0000   1.0000   1.0000   1.0000   1.0000   1.0000   1.0000   1.0000
     1.0000   1.0000   1.0000   1.0000   1.0000   1.0000   1.0000   1.0000
     1.0000   1.0000   1.0000   1.0000   1.0000   1.0000   1.0000   1.0000
     1.0000   1.0000   1.0000   1.0000   1.0000   1.0000   1.0000   1.0000
     1.0000   1.0000   1.0000   1.0000   1.0000   1.0000   1.0000   1.0000
     1.0000   1.0000   1.0000   1.0000   1.0000   1.0000   1.0000   1.0000
     1.0000   1.0000   1.0000   1.0000   1.0000   1.0000   1.0000   1.0000
     1.0000   1.0000   1.0000   1.0000   1.0000   1.0000   1.0000   1.0000
     1.0000   1.0000   1.0000   1.0000   1.0000   1.0000   1.0000   1.0000
     1.0000   1.0000   1.0000   1.0000   1.0000   1.0000   1.0000   1.0000
     1.0000   1.0000   1.0000   1.0000   1.0000   1.0000   1.0000   1.0000
     1.0000   1.0000   1.0000   1.0000   1.0000   1.0000   1.0000   1.0000
     1.0000   1.0000   1.0000   1.0000   1.0000   1.0000   1.0000   1.0000
     1.0000   1.0000   1.0000   1.0000   1.0000   1.0000   1.0000   1.0000
     1.0000   1.0000   1.0000   1.0000   1.0000   1.0000   1.0000   1.0000
     1.0000   1.0000   1.0000   1.0000   1.0000   1.0000   1.0000   1.0000
     1.0000   1.0000   1.0000   1.0000   1.0000   1.0000   1.0000   1.0000
     1.0000   1.0000   1.0000   1.0000   1.0000   1.0000   1.0000   1.0000
     1.0000   1.0000   1.0000   1.0000   1.0000   1.0000   1.0000   1.0000
     1.0000   1.0000   1.0000   1.0000   1.0000   1.0000   1.0000   1.0000
     1.0000   1.0000   1.0000   1.0000   1.0000   1.0000   1.0000   1.0000
     1.0000   1.0000   1.0000   1.0000   1.0000   1.0000   1.0000   1.0000
     1.0000   1.0000   1.0000   1.0000   1.0000   1.0001   1.0001   1.0001
     1.0002   1.0004   1.0004   1.0007   1.0013   1.0026   1.0030   1.0088
     1.0109   1.0116   1.0144   1.0191   1.0216   1.0232   1.0260   1.0335
     1.0333   0.9921   0.9545   0.8472   0.7366   0.6124   0.5845   0.4785
     0.4060   0.3070   0.2785   0.1748   0.1388   0.0511   0.0165  -0.0175
[...]
     1.0000   1.0000   1.0000   1.0000   1.0000   1.0000   1.0000   1.0000
     1.0000   1.0000   1.0000   1.0000   1.0000   1.0000   1.0000   1.0000
     1.0000   1.0000   1.0000   1.0000   1.0000   1.0000   1.0000   1.0000
     1.0000   1.0000   1.0000   1.0000   1.0000   1.0000   1.0000   1.0000
     1.0000   1.0000   1.0000   1.0000   1.0000   1.0000   1.0000   1.0000
     1.0000   1.0000   1.0000   1.0000   1.0000   1.0000   1.0000   1.0000
     1.0000   1.0000   1.0000   1.0000   1.0000   1.0000   1.0000   1.0000
     1.0000   1.0000   1.0000   1.0000   1.0000   1.0000   1.0000   1.0000
     1.0001   1.0002   1.0002   1.0007   1.0008   1.0009   1.0020   1.0029
     1.0036   1.0083   1.0106   1.0144   1.0192   1.0212   1.0325   1.0348
     1.0349   1.0347   1.0309   1.0278   1.0177   0.9850   0.9444   0.8652
     0.7792   0.7734   0.6632   0.5856   0.3985   0.3895   0.3521   0.1778
     0.1134   0.0202  -0.0077  -0.0168  -0.0302  -0.0341  -0.0354  -0.0273
    -0.0235  -0.0196  -0.0154  -0.0148  -0.0096  -0.0076  -0.0058  -0.0049
    -0.0031  -0.0022  -0.0014  -0.0012  -0.0009  -0.0007  -0.0003  -0.0002
    -0.0001  -0.0001  -0.0000  -0.0000  -0.0000  -0.0000  -0.0000  -0.0000
    -0.0000  -0.0000  -0.0000  -0.0000  -0.0000  -0.0000

          k =-0.0000-0.0000 0.5774 ( 23606 PWs)   bands (ev):

   -63.4822 -63.4822 -63.4822 -63.4821 -62.2841 -62.2602 -62.2598 -62.2598
   -62.2361 -62.2358 -62.1880 -62.1879 -62.1879 -62.1632 -62.1632 -62.1632
   -61.7655 -60.9561 -60.9505 -60.9397 -60.9397 -60.9365 -60.9206 -60.9202
   -60.9184 -60.9184 -60.9162 -60.9162 -60.9162 -32.2110 -32.2107 -32.2107
   -32.2091 -32.2085 -32.2085 -32.2079 -32.2076 -32.1859 -32.1855 -32.1855
   -32.1830 -31.2581 -31.1885 -31.1869 -31.1869 -31.1336 -31.1323 -31.1215
   -31.1065 -31.1065 -31.1029 -31.0650 -31.0650 -31.0635 -31.0389 -31.0356
   -31.0356 -31.0354 -31.0317 -30.9042 -30.9042 -30.9009 -30.9003 -30.8989
   -30.8989 -30.8897 -30.8849 -30.8849 -30.8760 -30.8715 -30.8666 -30.7207
   -30.7207 -30.7200 -30.6385 -30.6382 -30.6382 -30.4749 -30.4749 -30.4748
   -29.8653 -29.8072 -29.7980 -29.7980 -29.7618 -29.7497 -29.7497 -29.7486
   -29.7333 -29.7303 -29.7198 -29.7148 -29.7139 -29.7139 -29.7123 -29.6892
   -29.6818 -29.6818 -29.6719 -29.6702 -29.6670 -29.6670 -29.6465 -29.6390
   -29.6387 -29.6387 -29.6017 -29.5956 -29.5956 -29.5909 -29.5878 -29.5854
   -29.5854 -29.5641 -29.5550 -29.5550  10.3589  11.5050  11.5050  11.6410
    11.6681  12.5245  12.9684  13.1216  13.2273  13.2273  13.3828  13.4900
    13.4900  13.4992  13.5960  13.5960  13.6279  13.6410  13.7782  13.7782
    13.7805  13.9443  14.1146  14.2353  14.2353  14.3335  14.3708  14.3797
    14.3797  14.4346  14.5036  14.5036  14.5249  14.5901  14.6633  14.7287
    14.7287  14.7550  14.7894  14.8013  14.9103  14.9600  14.9600  15.0345
    15.0392  15.0392  15.1510  15.1864  15.1874  15.1956  15.1956  15.3145
    15.3145  15.3787  15.3997  15.4382  15.4542  15.4653  15.4653  15.5938
    15.5938  15.5987  15.6239  15.7200  15.7200  15.7211  15.7866  15.9117
    15.9214  15.9922  15.9922  16.0561  16.0561  16.0678  16.1227  16.1699
    16.2282  16.3099  16.3099  16.4030  16.4165  16.4165  16.4513  16.4896
    16.5114  16.6723  16.7005  16.7045  16.7045  16.8775  16.8832  16.8832
    16.9127  16.9519  17.0331  17.0331  17.1128  17.1128  17.1594  17.1626
    17.3026  17.3481  17.4076  17.4076  17.4166  17.5198  17.5198  17.5588
    17.6094  17.7481  17.7890  17.8761  17.8761  17.9232  17.9923  18.0241
    18.0551  18.0551  18.1878  18.1878  18.2216  18.2321  18.2722  18.2722
    18.3241  18.3954  18.4551  18.4633  18.4733  18.4733  18.6331  18.6418
    18.6418  18.7157  18.7533  18.7533  18.8143  18.8143  18.8250  18.8365
    18.9006  18.9153  18.9413  18.9709  18.9709  19.0770

     occupation numbers 
     1.0000   1.0000   1.0000   1.0000   1.0000   1.0000   1.0000   1.0000
     1.0000   1.0000   1.0000   1.0000   1.0000   1.0000   1.0000   1.0000
     1.0000   1.0000   1.0000   1.0000   1.0000   1.0000   1.0000   1.0000
     1.0000   1.0000   1.0000   1.0000   1.0000   1.0000   1.0000   1.0000
     1.0000   1.0000   1.0000   1.0000   1.0000   1.0000   1.0000   1.0000
     1.0000   1.0000   1.0000   1.0000   1.0000   1.0000   1.0000   1.0000
     1.0000   1.0000   1.0000   1.0000   1.0000   1.0000   1.0000   1.0000
     1.0000   1.0000   1.0000   1.0000   1.0000   1.0000   1.0000   1.0000
     1.0000   1.0000   1.0000   1.0000   1.0000   1.0000   1.0000   1.0000
     1.0000   1.0000   1.0000   1.0000   1.0000   1.0000   1.0000   1.0000
     1.0000   1.0000   1.0000   1.0000   1.0000   1.0000   1.0000   1.0000
     1.0000   1.0000   1.0000   1.0000   1.0000   1.0000   1.0000   1.0000
     1.0000   1.0000   1.0000   1.0000   1.0000   1.0000   1.0000   1.0000
     1.0000   1.0000   1.0000   1.0000   1.0000   1.0000   1.0000   1.0000
     1.0000   1.0000   1.0000   1.0000   1.0000   1.0000   1.0000   1.0000
     1.0000   1.0000   1.0000   1.0000   1.0000   1.0000   1.0000   1.0000
     1.0000   1.0000   1.0000   1.0000   1.0000   1.0000   1.0000   1.0000
     1.0000   1.0000   1.0000   1.0000   1.0000   1.0000   1.0000   1.0000
     1.0000   1.0000   1.0000   1.0000   1.0000   1.0000   1.0000   1.0000
     1.0000   1.0000   1.0000   1.0000   1.0000   1.0000   1.0000   1.0000
     1.0000   1.0000   1.0000   1.0000   1.0000   1.0000   1.0000   1.0000
     1.0000   1.0000   1.0000   1.0000   1.0000   1.0000   1.0000   1.0000
     1.0000   1.0000   1.0000   1.0000   1.0000   1.0000   1.0000   1.0000
     1.0000   1.0000   1.0000   1.0000   1.0000   1.0000   1.0000   1.0000
     1.0001   1.0003   1.0003   1.0009   1.0010   1.0010   1.0015   1.0022
     1.0028   1.0109   1.0132   1.0136   1.0136   1.0318   1.0323   1.0323
     1.0344   1.0354   1.0268   1.0268   0.9954   0.9954   0.9625   0.9597
     0.7815   0.7007   0.5837   0.5837   0.5653   0.3540   0.3540   0.2797
     0.1929   0.0286   0.0016  -0.0294  -0.0294  -0.0348  -0.0339  -0.0314
    -0.0282  -0.0282  -0.0140  -0.0140  -0.0111  -0.0102  -0.0075  -0.0075
    -0.0048  -0.0025  -0.0013  -0.0012  -0.0011  -0.0011  -0.0002  -0.0001
    -0.0001  -0.0001  -0.0000  -0.0000  -0.0000  -0.0000  -0.0000  -0.0000
    -0.0000  -0.0000  -0.0000  -0.0000  -0.0000  -0.0000

          k =-0.8660-0.1443-0.1443 ( 23616 PWs)   bands (ev):

   -63.4822 -63.4822 -63.4822 -63.4821 -62.2839 -62.2601 -62.2598 -62.2598
   -62.2362 -62.2361 -62.1881 -62.1880 -62.1880 -62.1632 -62.1631 -62.1631
   -61.7655 -60.9538 -60.9524 -60.9400 -60.9396 -60.9374 -60.9205 -60.9194
   -60.9185 -60.9184 -60.9162 -60.9162 -60.9162 -32.2109 -32.2109 -32.2108
   -32.2088 -32.2087 -32.2086 -32.2077 -32.2076 -32.1858 -32.1857 -32.1856
   -32.1828 -31.2574 -31.1887 -31.1873 -31.1871 -31.1334 -31.1329 -31.1228
   -31.1057 -31.1055 -31.1040 -31.0643 -31.0642 -31.0634 -31.0379 -31.0371
   -31.0359 -31.0345 -31.0334 -30.9029 -30.9025 -30.9016 -30.9006 -30.8993
   -30.8989 -30.8880 -30.8874 -30.8865 -30.8724 -30.8712 -30.8685 -30.7207
   -30.7206 -30.7201 -30.6385 -30.6384 -30.6384 -30.4750 -30.4749 -30.4749
   -29.8704 -29.8070 -29.8013 -29.8005 -29.7630 -29.7512 -29.7497 -29.7477
   -29.7324 -29.7318 -29.7146 -29.7142 -29.7121 -29.7048 -29.6973 -29.6954
   -29.6841 -29.6789 -29.6766 -29.6718 -29.6651 -29.6640 -29.6460 -29.6446
   -29.6390 -29.6257 -29.6169 -29.5957 -29.5945 -29.5940 -29.5899 -29.5864
   -29.5855 -29.5590 -29.5579 -29.5562  10.8847  10.8957  11.4100  11.5618
    12.0049  12.0273  12.9557  13.1471  13.2980  13.3912  13.3966  13.4718
    13.5271  13.5743  13.6116  13.6161  13.6437  13.6547  13.6868  13.7244
    13.7770  14.0486  14.1032  14.2803  14.3099  14.3186  14.3585  14.3654
    14.3778  14.4462  14.4480  14.5052  14.5435  14.6117  14.6748  14.6989
    14.7343  14.7600  14.7831  14.8023  14.8362  14.9471  14.9796  14.9809
    15.0647  15.0916  15.1157  15.1544  15.1799  15.2184  15.2513  15.2600
    15.3149  15.3506  15.4151  15.4289  15.4508  15.4565  15.5318  15.5591
    15.6003  15.6577  15.6752  15.7214  15.7409  15.7627  15.8450  15.8977
    15.9296  15.9755  15.9944  16.0391  16.0974  16.0987  16.1083  16.1549
    16.1628  16.3287  16.3451  16.3613  16.4550  16.4937  16.5071  16.5222
    16.5466  16.6225  16.6599  16.7015  16.7647  16.7928  16.8148  16.8214
    16.9420  16.9913  17.0021  17.0411  17.0563  17.0802  17.1202  17.2398
    17.2797  17.3546  17.3792  17.4291  17.4726  17.4934  17.5108  17.5519
    17.6446  17.7512  17.7819  17.8379  17.8812  17.9075  17.9502  17.9697
    18.0420  18.0613  18.1406  18.1716  18.1800  18.2362  18.2462  18.2755
    18.2876  18.2991  18.4479  18.4599  18.5039  18.5384  18.6475  18.6628
    18.6842  18.6852  18.7437  18.7700  18.8160  18.8416  18.8633  18.8955
    18.9181  18.9354  18.9521  18.9552  18.9832  19.0707

     occupation numbers 
     1.0000   1.0000   1.0000   1.0000   1.0000   1.0000   1.0000   1.0000
     1.0000   1.0000   1.0000   1.0000   1.0000   1.0000   1.0000   1.0000
     1.0000   1.0000   1.0000   1.0000   1.0000   1.0000   1.0000   1.0000
     1.0000   1.0000   1.0000   1.0000   1.0000   1.0000   1.0000   1.0000
     1.0000   1.0000   1.0000   1.0000   1.0000   1.0000   1.0000   1.0000
     1.0000   1.0000   1.0000   1.0000   1.0000   1.0000   1.0000   1.0000
     1.0000   1.0000   1.0000   1.0000   1.0000   1.0000   1.0000   1.0000
     1.0000   1.0000   1.0000   1.0000   1.0000   1.0000   1.0000   1.0000
     1.0000   1.0000   1.0000   1.0000   1.0000   1.0000   1.0000   1.0000
     1.0000   1.0000   1.0000   1.0000   1.0000   1.0000   1.0000   1.0000
     1.0000   1.0000   1.0000   1.0000   1.0000   1.0000   1.0000   1.0000
     1.0000   1.0000   1.0000   1.0000   1.0000   1.0000   1.0000   1.0000
     1.0000   1.0000   1.0000   1.0000   1.0000   1.0000   1.0000   1.0000
     1.0000   1.0000   1.0000   1.0000   1.0000   1.0000   1.0000   1.0000
     1.0000   1.0000   1.0000   1.0000   1.0000   1.0000   1.0000   1.0000
     1.0000   1.0000   1.0000   1.0000   1.0000   1.0000   1.0000   1.0000
     1.0000   1.0000   1.0000   1.0000   1.0000   1.0000   1.0000   1.0000
     1.0000   1.0000   1.0000   1.0000   1.0000   1.0000   1.0000   1.0000
     1.0000   1.0000   1.0000   1.0000   1.0000   1.0000   1.0000   1.0000
     1.0000   1.0000   1.0000   1.0000   1.0000   1.0000   1.0000   1.0000
     1.0000   1.0000   1.0000   1.0000   1.0000   1.0000   1.0000   1.0000
     1.0000   1.0000   1.0000   1.0000   1.0000   1.0000   1.0000   1.0000
     1.0000   1.0000   1.0000   1.0000   1.0000   1.0000   1.0000   1.0000
     1.0000   1.0000   1.0000   1.0000   1.0000   1.0000   1.0000   1.0000
     1.0000   1.0004   1.0004   1.0005   1.0016   1.0023   1.0026   1.0031
     1.0038   1.0074   1.0099   1.0133   1.0197   1.0228   1.0253   1.0260
     1.0354   1.0335   1.0323   1.0248   1.0205   1.0117   0.9909   0.8759
     0.8185   0.6885   0.6409   0.5396   0.4494   0.4068   0.3719   0.2925
     0.1404   0.0262   0.0056  -0.0198  -0.0303  -0.0337  -0.0355  -0.0351
    -0.0296  -0.0276  -0.0187  -0.0155  -0.0147  -0.0099  -0.0092  -0.0073
    -0.0066  -0.0060  -0.0014  -0.0013  -0.0008  -0.0005  -0.0001  -0.0001
    -0.0001  -0.0001  -0.0000  -0.0000  -0.0000  -0.0000  -0.0000  -0.0000
    -0.0000  -0.0000  -0.0000  -0.0000  -0.0000  -0.0000

          k =-0.8660-0.8660-0.8660 ( 23634 PWs)   bands (ev):

   -63.4822 -63.4822 -63.4822 -63.4822 -62.2838 -62.2598 -62.2598 -62.2598
   -62.2364 -62.2364 -62.1881 -62.1881 -62.1881 -62.1630 -62.1630 -62.1630
   -61.7655 -60.9526 -60.9526 -60.9396 -60.9396 -60.9396 -60.9207 -60.9184
   -60.9184 -60.9184 -60.9162 -60.9162 -60.9162 -32.2110 -32.2110 -32.2110
   -32.2087 -32.2087 -32.2087 -32.2075 -32.2075 -32.1858 -32.1858 -32.1858
   -32.1825 -31.2567 -31.1878 -31.1878 -31.1878 -31.1337 -31.1337 -31.1243
   -31.1048 -31.1048 -31.1048 -31.0630 -31.0630 -31.0630 -31.0364 -31.0364
   -31.0364 -31.0356 -31.0356 -30.9007 -30.9007 -30.9007 -30.9006 -30.9006
   -30.9006 -30.8883 -30.8883 -30.8883 -30.8710 -30.8698 -30.8698 -30.7204
   -30.7204 -30.7204 -30.6386 -30.6386 -30.6386 -30.4750 -30.4750 -30.4750
   -29.8755 -29.8047 -29.8047 -29.8047 -29.7644 -29.7499 -29.7499 -29.7499
   -29.7326 -29.7326 -29.7118 -29.7004 -29.7004 -29.7004 -29.6935 -29.6935
   -29.6869 -29.6869 -29.6869 -29.6626 -29.6626 -29.6626 -29.6400 -29.6400
   -29.6400 -29.6335 -29.6335 -29.5933 -29.5933 -29.5933 -29.5898 -29.5898
   -29.5898 -29.5572 -29.5572 -29.5572  11.3133  11.3133  11.3133  11.4387
    11.4824  11.4824  12.9966  13.3891  13.3891  13.3891  13.3899  13.4894
    13.5979  13.5979  13.5979  13.6571  13.6571  13.6571  13.6648  13.6648
    13.6648  14.1531  14.1531  14.3146  14.3146  14.3146  14.3313  14.3313
    14.3313  14.4935  14.4935  14.4935  14.5658  14.5658  14.6878  14.6878
    14.7451  14.7451  14.7451  14.8376  14.8376  14.9143  14.9143  14.9143
    15.0739  15.0739  15.0739  15.1550  15.1550  15.1550  15.2918  15.2918
    15.2918  15.3313  15.3313  15.4468  15.4468  15.4468  15.6137  15.6137
    15.6752  15.6752  15.6752  15.8190  15.8190  15.8190  15.8917  15.9534
    15.9990  15.9990  15.9990  16.0138  16.0484  16.0484  16.0935  16.0935
    16.0935  16.3942  16.3942  16.3942  16.5594  16.5594  16.5594  16.5652
    16.5652  16.6945  16.6945  16.6945  16.6985  16.6985  16.6985  16.7465
    16.8839  17.0196  17.0196  17.0196  17.0314  17.0314  17.0314  17.2744
    17.2744  17.4248  17.4248  17.4248  17.5127  17.5127  17.5127  17.5564
    17.5564  17.7817  17.7817  17.7817  17.8329  17.9319  17.9319  17.9591
    17.9591  17.9591  18.1369  18.1369  18.1369  18.2264  18.2264  18.2689
    18.2689  18.2689  18.3681  18.5410  18.5410  18.5410  18.6671  18.6671
    18.6671  18.8069  18.8069  18.8069  18.8660  18.8708  18.8708  18.8708
    18.9434  18.9434  18.9574  18.9574  18.9574  19.0062

     occupation numbers 
     1.0000   1.0000   1.0000   1.0000   1.0000   1.0000   1.0000   1.0000
     1.0000   1.0000   1.0000   1.0000   1.0000   1.0000   1.0000   1.0000
     1.0000   1.0000   1.0000   1.0000   1.0000   1.0000   1.0000   1.0000
     1.0000   1.0000   1.0000   1.0000   1.0000   1.0000   1.0000   1.0000
     1.0000   1.0000   1.0000   1.0000   1.0000   1.0000   1.0000   1.0000
     1.0000   1.0000   1.0000   1.0000   1.0000   1.0000   1.0000   1.0000
     1.0000   1.0000   1.0000   1.0000   1.0000   1.0000   1.0000   1.0000
     1.0000   1.0000   1.0000   1.0000   1.0000   1.0000   1.0000   1.0000
     1.0000   1.0000   1.0000   1.0000   1.0000   1.0000   1.0000   1.0000
     1.0000   1.0000   1.0000   1.0000   1.0000   1.0000   1.0000   1.0000
     1.0000   1.0000   1.0000   1.0000   1.0000   1.0000   1.0000   1.0000
     1.0000   1.0000   1.0000   1.0000   1.0000   1.0000   1.0000   1.0000
     1.0000   1.0000   1.0000   1.0000   1.0000   1.0000   1.0000   1.0000
     1.0000   1.0000   1.0000   1.0000   1.0000   1.0000   1.0000   1.0000
     1.0000   1.0000   1.0000   1.0000   1.0000   1.0000   1.0000   1.0000
     1.0000   1.0000   1.0000   1.0000   1.0000   1.0000   1.0000   1.0000
     1.0000   1.0000   1.0000   1.0000   1.0000   1.0000   1.0000   1.0000
     1.0000   1.0000   1.0000   1.0000   1.0000   1.0000   1.0000   1.0000
     1.0000   1.0000   1.0000   1.0000   1.0000   1.0000   1.0000   1.0000
     1.0000   1.0000   1.0000   1.0000   1.0000   1.0000   1.0000   1.0000
     1.0000   1.0000   1.0000   1.0000   1.0000   1.0000   1.0000   1.0000
     1.0000   1.0000   1.0000   1.0000   1.0000   1.0000   1.0000   1.0000
     1.0000   1.0000   1.0000   1.0000   1.0000   1.0000   1.0000   1.0000
     1.0000   1.0000   1.0000   1.0000   1.0000   1.0000   1.0000   1.0000
     1.0000   1.0008   1.0008   1.0008   1.0043   1.0043   1.0043   1.0046
     1.0046   1.0127   1.0127   1.0127   1.0131   1.0131   1.0131   1.0177
     1.0324   1.0296   1.0296   1.0296   1.0272   1.0272   1.0272   0.8266
     0.8266   0.5483   0.5483   0.5483   0.3681   0.3681   0.3681   0.2841
     0.2841   0.0057   0.0057   0.0057  -0.0181  -0.0352  -0.0352  -0.0353
    -0.0353  -0.0353  -0.0191  -0.0191  -0.0191  -0.0107  -0.0107  -0.0077
    -0.0077  -0.0077  -0.0032  -0.0005  -0.0005  -0.0005  -0.0001  -0.0001
    -0.0001  -0.0000  -0.0000  -0.0000  -0.0000  -0.0000  -0.0000  -0.0000
    -0.0000  -0.0000  -0.0000  -0.0000  -0.0000  -0.0000

     the Fermi energy is    17.4482 ev

!    total energy              =   -6201.31049612 Ry
     Harris-Foulkes estimate   =   -6201.31049610 Ry
     estimated scf accuracy    <       0.00000094 Ry

     The total energy is the sum of the following terms:

     one-electron contribution =   -2626.12883065 Ry
     hartree contribution      =    1550.93458249 Ry
     xc contribution           =    -807.40306335 Ry
     ewald contribution        =   -4318.71624771 Ry
     smearing contrib. (-TS)   =       0.00306309 Ry

     total magnetization       =    -4.67 Bohr mag/cell
     absolute magnetization    =    41.64 Bohr mag/cell

     convergence has been achieved in  54 iterations

     Writing output data file mn-6.save/

     init_run     :    300.44s CPU    301.71s WALL (       1 calls)
     electrons    :  45529.61s CPU  45769.93s WALL (       1 calls)

     Called by init_run:
     wfcinit      :    293.00s CPU    294.05s WALL (       1 calls)
     wfcinit:atom :      0.36s CPU      0.36s WALL (      32 calls)
     wfcinit:wfcr :    290.35s CPU    291.39s WALL (      32 calls)
     potinit      :      1.00s CPU      1.02s WALL (       1 calls)
     hinit0       :      0.52s CPU      0.53s WALL (       1 calls)

     Called by electrons:
     c_bands      :  41690.05s CPU  41894.71s WALL (      54 calls)
     sum_band     :   3509.69s CPU   3535.82s WALL (      54 calls)
     v_of_rho     :     45.30s CPU     46.97s WALL (      55 calls)
     v_h          :      1.75s CPU      1.80s WALL (      55 calls)
     v_xc         :     43.55s CPU     45.16s WALL (      55 calls)
     newd         :    278.50s CPU    286.29s WALL (      55 calls)
     mix_rho      :      7.46s CPU      7.59s WALL (      54 calls)

     Called by c_bands:
     init_us_2    :     52.91s CPU     53.08s WALL (    3488 calls)
     cegterg      :  41402.10s CPU  41605.04s WALL (    1728 calls)

     Called by sum_band:
     sum_band:bec :      7.39s CPU      7.40s WALL (    1728 calls)
     addusdens    :    345.07s CPU    353.40s WALL (      54 calls)

     Called by *egterg:
     h_psi        :  14022.38s CPU  14120.93s WALL (    6765 calls)
     s_psi        :   5671.28s CPU   5674.17s WALL (    6765 calls)
     g_psi        :     16.43s CPU     16.49s WALL (    5005 calls)
     cdiaghg      :   3452.62s CPU   3457.48s WALL (    6733 calls)
     cegterg:over :   7163.52s CPU   7192.07s WALL (    5005 calls)
     cegterg:upda :   4663.98s CPU   4683.78s WALL (    5005 calls)
     cegterg:last :   3361.89s CPU   3362.65s WALL (    1728 calls)

     Called by h_psi:
     h_psi:pot    :  14003.14s CPU  14082.95s WALL (    6765 calls)
     h_psi:calbec :   5727.68s CPU   5731.61s WALL (    6765 calls)
     vloc_psi     :   2603.22s CPU   2677.71s WALL (    6765 calls)
     add_vuspsi   :   5672.15s CPU   5673.59s WALL (    6765 calls)

     General routines
     calbec       :   8234.23s CPU   8239.78s WALL (    8493 calls)
     fft          :     31.81s CPU     33.08s WALL (    1369 calls)
     ffts         :      0.72s CPU      0.74s WALL (     218 calls)
     fftw         :   2880.60s CPU   2962.08s WALL ( 2518622 calls)
     interpolate  :      3.38s CPU      3.48s WALL (     110 calls)

     Parallel routines
     fft_scatt_xy :    295.85s CPU    304.00s WALL ( 2520209 calls)
     fft_scatt_yz :   1259.02s CPU   1297.66s WALL ( 2520209 calls)

     PWSCF        :     12h43m CPU     12h47m WALL


   This run was terminated on:   8: 8:44   3Aug2022            

=------------------------------------------------------------------------------=
   JOB DONE.
=------------------------------------------------------------------------------=
