
     Program PWSCF v.6.4.1 starts on  3Aug2022 at  8: 8:44 

     This program is part of the open-source Quantum ESPRESSO suite
     for quantum simulation of materials; please cite
         "P. Giannozzi et al., J. Phys.:Condens. Matter 21 395502 (2009);
         "P. Giannozzi et al., J. Phys.:Condens. Matter 29 465901 (2017);
          URL http://www.quantum-espresso.org", 
     in publications or presentations arising from this work. More details at
     http://www.quantum-espresso.org/quote

     Parallel version (MPI), running on     6 processors

     MPI processes distributed on     1 nodes
     R & G space division:  proc/nbgrp/npool/nimage =       6
     Reading input from mn-7.in

     Current dimensions of program PWSCF are:
     Max number of different atomic species (ntypx) = 10
     Max number of k-points (npk) =  40000
     Max angular momentum in pseudopotentials (lmaxx) =  3
               file Mn.pbe-spn-rrkjus_psl.0.3.1.UPF: wavefunction(s)  3D renormalized

     Subspace diagonalization in iterative solution of the eigenvalue problem:
     a serial algorithm will be used

     Message from routine setup:
     DEPRECATED: symmetry with ibrav=0, use correct ibrav instead

     Parallelization info
     --------------------
     sticks:   dense  smooth     PW     G-vecs:    dense   smooth      PW
     Min        1862     743    203               124461    31511    4475
     Max        1863     744    204               124463    31513    4476
     Sum       11175    4463   1219               746771   189073   26851



     bravais-lattice index     =            0
     lattice parameter (alat)  =      14.5833  a.u.
     unit-cell volume          =    2387.5141 (a.u.)^3
     number of atoms/cell      =           29
     number of atomic types    =            1
     number of electrons       =       435.00
     number of Kohn-Sham states=          262
     kinetic-energy cutoff     =      70.0000  Ry
     charge density cutoff     =     700.0000  Ry
     convergence threshold     =      1.0E-06
     mixing beta               =       0.7000
     number of iterations used =            8  plain     mixing
     Exchange-correlation      = PBE ( 1  4  3  4 0 0)

     celldm(1)=  14.583305  celldm(2)=   0.000000  celldm(3)=   0.000000
     celldm(4)=   0.000000  celldm(5)=   0.000000  celldm(6)=   0.000000

     crystal axes: (cart. coord. in units of alat)
               a(1) = (  -0.577350   0.577350   0.577350 )  
               a(2) = (   0.577350  -0.577350   0.577350 )  
               a(3) = (   0.577350   0.577350  -0.577350 )  

     reciprocal axes: (cart. coord. in units 2 pi/alat)
               b(1) = (  0.000000  0.866025  0.866025 )  
               b(2) = (  0.866025  0.000000  0.866025 )  
               b(3) = (  0.866025  0.866025  0.000000 )  


     PseudoPot. # 1 for Mn read from file:
     /home/cristian/Escritorio/Proyecto_Grafeno/pseudopotenciales/Mn.pbe-spn-rrkjus_psl.0.3.1.UPF
     MD5 check sum: e1cac159bdd2ba70c18e85765a5d4279
     Pseudo is Ultrasoft + core correction, Zval = 15.0
     Generated using "atomic" code by A. Dal Corso v.6.2.2
     Using radial grid of 1187 points,  6 beta functions with: 
                l(1) =   0
                l(2) =   0
                l(3) =   1
                l(4) =   1
                l(5) =   2
                l(6) =   2
     Q(r) pseudized with 0 coefficients 


     atomic species   valence    mass     pseudopotential
        Mn            15.00    54.93804     Mn( 1.00)

     Starting magnetic structure 
     atomic species   magnetization
        Mn           0.700

     24 Sym. Ops. (no inversion) found


                                    s                        frac. trans.

      isym =  1     identity                                     

 cryst.   s( 1) = (     1          0          0      )
                  (     0          1          0      )
                  (     0          0          1      )

 cart.    s( 1) = (  1.0000000  0.0000000  0.0000000 )
                  (  0.0000000  1.0000000  0.0000000 )
                  (  0.0000000  0.0000000  1.0000000 )


      isym =  2     180 deg rotation - cart. axis [0,0,1]        

 cryst.   s( 2) = (     0          1          0      )
                  (     1          0          0      )
                  (    -1         -1         -1      )

 cart.    s( 2) = ( -1.0000000  0.0000000  0.0000000 )
                  (  0.0000000 -1.0000000  0.0000000 )
                  (  0.0000000  0.0000000  1.0000000 )


      isym =  3     180 deg rotation - cart. axis [0,1,0]        

 cryst.   s( 3) = (     0          0          1      )
                  (    -1         -1         -1      )
                  (     1          0          0      )

 cart.    s( 3) = ( -1.0000000  0.0000000  0.0000000 )
                  (  0.0000000  1.0000000  0.0000000 )
                  (  0.0000000  0.0000000 -1.0000000 )


      isym =  4     180 deg rotation - cart. axis [1,0,0]        

 cryst.   s( 4) = (    -1         -1         -1      )
                  (     0          0          1      )
                  (     0          1          0      )

 cart.    s( 4) = (  1.0000000  0.0000000  0.0000000 )
                  (  0.0000000 -1.0000000  0.0000000 )
                  (  0.0000000  0.0000000 -1.0000000 )


      isym =  5     120 deg rotation - cart. axis [-1,-1,-1]     

 cryst.   s( 5) = (     0          0          1      )
                  (     1          0          0      )
                  (     0          1          0      )

 cart.    s( 5) = (  0.0000000  1.0000000  0.0000000 )
                  (  0.0000000  0.0000000  1.0000000 )
                  (  1.0000000  0.0000000  0.0000000 )


      isym =  6     120 deg rotation - cart. axis [-1,1,1]       

 cryst.   s( 6) = (     1          0          0      )
                  (     0          0          1      )
                  (    -1         -1         -1      )

 cart.    s( 6) = (  0.0000000 -1.0000000  0.0000000 )
                  (  0.0000000  0.0000000  1.0000000 )
                  ( -1.0000000  0.0000000  0.0000000 )


      isym =  7     120 deg rotation - cart. axis [1,1,-1]       

 cryst.   s( 7) = (     0          1          0      )
                  (    -1         -1         -1      )
                  (     0          0          1      )

 cart.    s( 7) = (  0.0000000  1.0000000  0.0000000 )
                  (  0.0000000  0.0000000 -1.0000000 )
                  ( -1.0000000  0.0000000  0.0000000 )


      isym =  8     120 deg rotation - cart. axis [1,-1,1]       

 cryst.   s( 8) = (    -1         -1         -1      )
                  (     0          1          0      )
                  (     1          0          0      )

 cart.    s( 8) = (  0.0000000 -1.0000000  0.0000000 )
                  (  0.0000000  0.0000000 -1.0000000 )
                  (  1.0000000  0.0000000  0.0000000 )


      isym =  9     120 deg rotation - cart. axis [1,1,1]        

 cryst.   s( 9) = (     0          1          0      )
                  (     0          0          1      )
                  (     1          0          0      )

 cart.    s( 9) = (  0.0000000  0.0000000  1.0000000 )
                  (  1.0000000  0.0000000  0.0000000 )
                  (  0.0000000  1.0000000  0.0000000 )


      isym = 10     120 deg rotation - cart. axis [-1,1,-1]      

 cryst.   s(10) = (     0          0          1      )
                  (     0          1          0      )
                  (    -1         -1         -1      )

 cart.    s(10) = (  0.0000000  0.0000000  1.0000000 )
                  ( -1.0000000  0.0000000  0.0000000 )
                  (  0.0000000 -1.0000000  0.0000000 )


      isym = 11     120 deg rotation - cart. axis [1,-1,-1]      

 cryst.   s(11) = (     1          0          0      )
                  (    -1         -1         -1      )
                  (     0          1          0      )

 cart.    s(11) = (  0.0000000  0.0000000 -1.0000000 )
                  ( -1.0000000  0.0000000  0.0000000 )
                  (  0.0000000  1.0000000  0.0000000 )


      isym = 12     120 deg rotation - cart. axis [-1,-1,1]      

 cryst.   s(12) = (    -1         -1         -1      )
                  (     1          0          0      )
                  (     0          0          1      )

 cart.    s(12) = (  0.0000000  0.0000000 -1.0000000 )
                  (  1.0000000  0.0000000  0.0000000 )
                  (  0.0000000 -1.0000000  0.0000000 )


      isym = 13     inv. 180 deg rotation - cart. axis [1,1,0]   

 cryst.   s(13) = (     1          0          0      )
                  (     0          1          0      )
                  (    -1         -1         -1      )

 cart.    s(13) = (  0.0000000 -1.0000000  0.0000000 )
                  ( -1.0000000  0.0000000  0.0000000 )
                  (  0.0000000  0.0000000  1.0000000 )


      isym = 14     inv. 180 deg rotation - cart. axis [1,-1,0]  

 cryst.   s(14) = (     0          1          0      )
                  (     1          0          0      )
                  (     0          0          1      )

 cart.    s(14) = (  0.0000000  1.0000000  0.0000000 )
                  (  1.0000000  0.0000000  0.0000000 )
                  (  0.0000000  0.0000000  1.0000000 )


      isym = 15     inv.  90 deg rotation - cart. axis [0,0,-1]  

 cryst.   s(15) = (    -1         -1         -1      )
                  (     0          0          1      )
                  (     1          0          0      )

 cart.    s(15) = (  0.0000000 -1.0000000  0.0000000 )
                  (  1.0000000  0.0000000  0.0000000 )
                  (  0.0000000  0.0000000 -1.0000000 )


      isym = 16     inv.  90 deg rotation - cart. axis [0,0,1]   

 cryst.   s(16) = (     0          0          1      )
                  (    -1         -1         -1      )
                  (     0          1          0      )

 cart.    s(16) = (  0.0000000  1.0000000  0.0000000 )
                  ( -1.0000000  0.0000000  0.0000000 )
                  (  0.0000000  0.0000000 -1.0000000 )


      isym = 17     inv. 180 deg rotation - cart. axis [1,0,1]   

 cryst.   s(17) = (     1          0          0      )
                  (    -1         -1         -1      )
                  (     0          0          1      )

 cart.    s(17) = (  0.0000000  0.0000000 -1.0000000 )
                  (  0.0000000  1.0000000  0.0000000 )
                  ( -1.0000000  0.0000000  0.0000000 )


      isym = 18     inv. 180 deg rotation - cart. axis [-1,0,1]  

 cryst.   s(18) = (     0          0          1      )
                  (     0          1          0      )
                  (     1          0          0      )

 cart.    s(18) = (  0.0000000  0.0000000  1.0000000 )
                  (  0.0000000  1.0000000  0.0000000 )
                  (  1.0000000  0.0000000  0.0000000 )


      isym = 19     inv.  90 deg rotation - cart. axis [0,1,0]   

 cryst.   s(19) = (    -1         -1         -1      )
                  (     1          0          0      )
                  (     0          1          0      )

 cart.    s(19) = (  0.0000000  0.0000000 -1.0000000 )
                  (  0.0000000 -1.0000000  0.0000000 )
                  (  1.0000000  0.0000000  0.0000000 )


      isym = 20     inv.  90 deg rotation - cart. axis [0,-1,0]  

 cryst.   s(20) = (     0          1          0      )
                  (     0          0          1      )
                  (    -1         -1         -1      )

 cart.    s(20) = (  0.0000000  0.0000000  1.0000000 )
                  (  0.0000000 -1.0000000  0.0000000 )
                  ( -1.0000000  0.0000000  0.0000000 )


      isym = 21     inv. 180 deg rotation - cart. axis [0,1,1]   

 cryst.   s(21) = (    -1         -1         -1      )
                  (     0          1          0      )
                  (     0          0          1      )

 cart.    s(21) = (  1.0000000  0.0000000  0.0000000 )
                  (  0.0000000  0.0000000 -1.0000000 )
                  (  0.0000000 -1.0000000  0.0000000 )


      isym = 22     inv. 180 deg rotation - cart. axis [0,1,-1]  

 cryst.   s(22) = (     1          0          0      )
                  (     0          0          1      )
                  (     0          1          0      )

 cart.    s(22) = (  1.0000000  0.0000000  0.0000000 )
                  (  0.0000000  0.0000000  1.0000000 )
                  (  0.0000000  1.0000000  0.0000000 )


      isym = 23     inv.  90 deg rotation - cart. axis [-1,0,0]  

 cryst.   s(23) = (     0          1          0      )
                  (    -1         -1         -1      )
                  (     1          0          0      )

 cart.    s(23) = ( -1.0000000  0.0000000  0.0000000 )
                  (  0.0000000  0.0000000 -1.0000000 )
                  (  0.0000000  1.0000000  0.0000000 )


      isym = 24     inv.  90 deg rotation - cart. axis [1,0,0]   

 cryst.   s(24) = (     0          0          1      )
                  (     1          0          0      )
                  (    -1         -1         -1      )

 cart.    s(24) = ( -1.0000000  0.0000000  0.0000000 )
                  (  0.0000000  0.0000000  1.0000000 )
                  (  0.0000000 -1.0000000  0.0000000 )


   Cartesian axes

     site n.     atom                  positions (alat units)
         1           Mn  tau(   1) = (   0.0000000   0.0000000   0.0000000  )
         2           Mn  tau(   2) = (   0.3670447   0.3670447   0.3670447  )
         3           Mn  tau(   3) = (   0.2103056   0.2103056  -0.2103056  )
         4           Mn  tau(   4) = (   0.2103056  -0.2103056   0.2103056  )
         5           Mn  tau(   5) = (  -0.2103056   0.2103056   0.2103056  )
         6           Mn  tau(   6) = (   0.4739122   0.4739122  -0.2517940  )
         7           Mn  tau(   7) = (   0.1034381   0.1034381   0.3255563  )
         8           Mn  tau(   8) = (   0.1034381  -0.1034381   0.8291443  )
         9           Mn  tau(   9) = (  -0.1034381   0.1034381   0.8291443  )
        10           Mn  tau(  10) = (  -0.2517940   0.4739122   0.4739122  )
        11           Mn  tau(  11) = (   0.3255563   0.1034381   0.1034381  )
        12           Mn  tau(  12) = (   0.8291443   0.1034381  -0.1034381  )
        13           Mn  tau(  13) = (   0.8291443  -0.1034381   0.1034381  )
        14           Mn  tau(  14) = (   0.4739122  -0.2517940   0.4739122  )
        15           Mn  tau(  15) = (   0.1034381   0.3255563   0.1034381  )
        16           Mn  tau(  16) = (  -0.1034381   0.8291443   0.1034381  )
        17           Mn  tau(  17) = (   0.1034381   0.8291443  -0.1034381  )
        18           Mn  tau(  18) = (   0.1650529   0.1650529   0.6172683  )
        19           Mn  tau(  19) = (   0.4122974   0.4122974   0.0399180  )
        20           Mn  tau(  20) = (  -0.1650529   0.1650529   0.5374323  )
        21           Mn  tau(  21) = (   0.1650529  -0.1650529   0.5374323  )
        22           Mn  tau(  22) = (   0.6172683   0.1650529   0.1650529  )
        23           Mn  tau(  23) = (   0.0399180   0.4122974   0.4122974  )
        24           Mn  tau(  24) = (   0.5374323  -0.1650529   0.1650529  )
        25           Mn  tau(  25) = (   0.5374323   0.1650529  -0.1650529  )
        26           Mn  tau(  26) = (   0.1650529   0.6172683   0.1650529  )
        27           Mn  tau(  27) = (   0.4122974   0.0399180   0.4122974  )
        28           Mn  tau(  28) = (   0.1650529   0.5374323  -0.1650529  )
        29           Mn  tau(  29) = (  -0.1650529   0.5374323   0.1650529  )

   Crystallographic axes

     site n.     atom                  positions (cryst. coord.)
         1           Mn  tau(   1) = (  0.0000000  0.0000000  0.0000000  )
         2           Mn  tau(   2) = (  0.6357400  0.6357400  0.6357400  )
         3           Mn  tau(   3) = (  0.0000000  0.0000000  0.3642600  )
         4           Mn  tau(   4) = (  0.0000000  0.3642600  0.0000000  )
         5           Mn  tau(   5) = (  0.3642600  0.0000000  0.0000000  )
         6           Mn  tau(   6) = (  0.1923600  0.1923600  0.8208400  )
         7           Mn  tau(   7) = (  0.3715200  0.3715200  0.1791600  )
         8           Mn  tau(   8) = (  0.6284800  0.8076400  0.0000000  )
         9           Mn  tau(   9) = (  0.8076400  0.6284800  0.0000000  )
        10           Mn  tau(  10) = (  0.8208400  0.1923600  0.1923600  )
        11           Mn  tau(  11) = (  0.1791600  0.3715200  0.3715200  )
        12           Mn  tau(  12) = (  0.0000000  0.6284800  0.8076400  )
        13           Mn  tau(  13) = (  0.0000000  0.8076400  0.6284800  )
        14           Mn  tau(  14) = (  0.1923600  0.8208400  0.1923600  )
        15           Mn  tau(  15) = (  0.3715200  0.1791600  0.3715200  )
        16           Mn  tau(  16) = (  0.8076400  0.0000000  0.6284800  )
        17           Mn  tau(  17) = (  0.6284800  0.0000000  0.8076400  )
        18           Mn  tau(  18) = (  0.6775100  0.6775100  0.2858800  )
        19           Mn  tau(  19) = (  0.3916300  0.3916300  0.7141200  )
        20           Mn  tau(  20) = (  0.6083700  0.3224900  0.0000000  )
        21           Mn  tau(  21) = (  0.3224900  0.6083700  0.0000000  )
        22           Mn  tau(  22) = (  0.2858800  0.6775100  0.6775100  )
        23           Mn  tau(  23) = (  0.7141200  0.3916300  0.3916300  )
        24           Mn  tau(  24) = (  0.0000000  0.6083700  0.3224900  )
        25           Mn  tau(  25) = (  0.0000000  0.3224900  0.6083700  )
        26           Mn  tau(  26) = (  0.6775100  0.2858800  0.6775100  )
        27           Mn  tau(  27) = (  0.3916300  0.7141200  0.3916300  )
        28           Mn  tau(  28) = (  0.3224900  0.0000000  0.6083700  )
        29           Mn  tau(  29) = (  0.6083700  0.0000000  0.3224900  )

     number of k points=    20  Methfessel-Paxton smearing, width (Ry)=  0.0300
                       cart. coord. in units 2pi/alat
        k(    1) = (   0.0000000   0.0000000   0.0000000), wk =   0.0029155
        k(    2) = (   0.1237179   0.1237179   0.0000000), wk =   0.0349854
        k(    3) = (   0.2474358   0.2474358   0.0000000), wk =   0.0349854
        k(    4) = (   0.3711537   0.3711537   0.0000000), wk =   0.0349854
        k(    5) = (   0.2474358   0.1237179   0.1237179), wk =   0.0699708
        k(    6) = (   0.3711537   0.2474358   0.1237179), wk =   0.1399417
        k(    7) = (   0.4948717   0.3711537   0.1237179), wk =   0.0699708
        k(    8) = (   0.4948717   0.2474358   0.2474358), wk =   0.0699708
        k(    9) = (   0.2474358   0.2474358   0.2474358), wk =   0.0233236
        k(   10) = (   0.3711537   0.3711537   0.2474358), wk =   0.0699708
        k(   11) = (  -0.0000000  -0.0000000   0.2474358), wk =   0.0174927
        k(   12) = (   0.4948717   0.3711537   0.3711537), wk =   0.0233236
        k(   13) = (   0.0000000  -0.1237179   0.3711537), wk =   0.0699708
        k(   14) = (  -0.0000000  -0.2474358   0.4948717), wk =   0.0699708
        k(   15) = (   0.1237179  -0.1237179   0.4948717), wk =   0.0699708
        k(   16) = (  -0.7423075  -0.2474358  -0.2474358), wk =   0.0699708
        k(   17) = (   0.0000000   0.0000000   0.4948717), wk =   0.0174927
        k(   18) = (  -0.0000000  -0.1237179   0.6185896), wk =   0.0699708
        k(   19) = (  -0.7423075  -0.1237179  -0.1237179), wk =   0.0233236
        k(   20) = (  -0.0000000  -0.0000000   0.7423075), wk =   0.0174927

                       cryst. coord.
        k(    1) = (   0.0000000   0.0000000   0.0000000), wk =   0.0029155
        k(    2) = (   0.0000000   0.0000000   0.1428571), wk =   0.0349854
        k(    3) = (   0.0000000   0.0000000   0.2857143), wk =   0.0349854
        k(    4) = (   0.0000000   0.0000000   0.4285714), wk =   0.0349854
        k(    5) = (   0.0000000   0.1428571   0.1428571), wk =   0.0699708
        k(    6) = (   0.0000000   0.1428571   0.2857143), wk =   0.1399417
        k(    7) = (   0.0000000   0.1428571   0.4285714), wk =   0.0699708
        k(    8) = (   0.0000000   0.2857143   0.2857143), wk =   0.0699708
        k(    9) = (   0.1428571   0.1428571   0.1428571), wk =   0.0233236
        k(   10) = (   0.1428571   0.1428571   0.2857143), wk =   0.0699708
        k(   11) = (   0.1428571   0.1428571  -0.1428571), wk =   0.0174927
        k(   12) = (   0.1428571   0.2857143   0.2857143), wk =   0.0233236
        k(   13) = (   0.1428571   0.2857143  -0.2857143), wk =   0.0699708
        k(   14) = (   0.1428571   0.4285714  -0.4285714), wk =   0.0699708
        k(   15) = (   0.1428571   0.4285714  -0.2857143), wk =   0.0699708
        k(   16) = (   0.1428571  -0.4285714  -0.4285714), wk =   0.0699708
        k(   17) = (   0.2857143   0.2857143  -0.2857143), wk =   0.0174927
        k(   18) = (   0.2857143   0.4285714  -0.4285714), wk =   0.0699708
        k(   19) = (   0.2857143  -0.4285714  -0.4285714), wk =   0.0233236
        k(   20) = (   0.4285714   0.4285714  -0.4285714), wk =   0.0174927

     Dense  grid:   746771 G-vectors     FFT dimensions: ( 125, 125, 125)

     Smooth grid:   189073 G-vectors     FFT dimensions: (  80,  80,  80)

     Dynamical RAM for                 wfc:      15.73 MB

     Dynamical RAM for     wfc (w. buffer):     644.99 MB

     Dynamical RAM for           str. fact:       1.90 MB

     Dynamical RAM for           local pot:       0.00 MB

     Dynamical RAM for          nlocal pot:      31.34 MB

     Dynamical RAM for                qrad:       4.92 MB

     Dynamical RAM for          rho,v,vnew:      26.42 MB

     Dynamical RAM for               rhoin:       8.81 MB

     Dynamical RAM for            rho*nmix:      60.77 MB

     Dynamical RAM for           G-vectors:       7.36 MB

     Dynamical RAM for          h,s,v(r/c):      50.28 MB

     Dynamical RAM for          <psi|beta>:       2.09 MB

     Dynamical RAM for                 psi:      62.93 MB

     Dynamical RAM for                hpsi:      62.93 MB

     Dynamical RAM for                spsi:      62.93 MB

     Dynamical RAM for      wfcinit/wfcrot:      36.75 MB

     Dynamical RAM for           addusdens:     410.21 MB

     Estimated static dynamical RAM per process >     805.32 MB

     Estimated max dynamical RAM per process >       1.19 GB

     Estimated total dynamical RAM >       7.12 GB
     Generating pointlists ...
     new r_m :   0.1207 (alat units)  1.7600 (a.u.) for type    1

     Check: negative core charge=   -0.000005

     Initial potential from superposition of free atoms

     starting charge  434.98555, renormalised to  435.00000
     Starting wfcs are  290 randomized atomic wfcs

     total cpu time spent up to now is      345.2 secs

     Self-consistent Calculation

     iteration #  1     ecut=    70.00 Ry     beta= 0.70
     Davidson diagonalization with overlap
     ethr =  1.00E-02,  avg # of iterations =  3.0

     total cpu time spent up to now is     1497.8 secs

     total energy              =   -6195.45219513 Ry
     Harris-Foulkes estimate   =   -6169.32236570 Ry
     estimated scf accuracy    <      36.50529078 Ry

     total magnetization       =    89.00 Bohr mag/cell
     absolute magnetization    =    95.85 Bohr mag/cell

     iteration #  2     ecut=    70.00 Ry     beta= 0.70
     Davidson diagonalization with overlap
     ethr =  8.39E-03,  avg # of iterations =  3.6

     total cpu time spent up to now is     2455.0 secs

     total energy              =   -6181.53680609 Ry
     Harris-Foulkes estimate   =   -6199.61407513 Ry
     estimated scf accuracy    <      46.66202873 Ry

     total magnetization       =    86.34 Bohr mag/cell
     absolute magnetization    =    89.78 Bohr mag/cell

     iteration #  3     ecut=    70.00 Ry     beta= 0.70
     Davidson diagonalization with overlap
     ethr =  8.39E-03,  avg # of iterations =  5.8

     total cpu time spent up to now is     3828.9 secs

     total energy              =   -6198.46906204 Ry
     Harris-Foulkes estimate   =   -6222.38942005 Ry
     estimated scf accuracy    <     165.33708857 Ry

     total magnetization       =    62.58 Bohr mag/cell
     absolute magnetization    =    66.21 Bohr mag/cell

     iteration #  4     ecut=    70.00 Ry     beta= 0.70
     Davidson diagonalization with overlap
     ethr =  8.39E-03,  avg # of iterations =  3.7

     total cpu time spent up to now is     4876.9 secs

     total energy              =   -6197.83950959 Ry
     Harris-Foulkes estimate   =   -6204.42647451 Ry
     estimated scf accuracy    <      77.91434063 Ry

     total magnetization       =    43.67 Bohr mag/cell
     absolute magnetization    =    50.54 Bohr mag/cell

     iteration #  5     ecut=    70.00 Ry     beta= 0.70
     Davidson diagonalization with overlap
     ethr =  8.39E-03,  avg # of iterations =  2.2

     total cpu time spent up to now is     5765.1 secs

     total energy              =   -6198.91305585 Ry
     Harris-Foulkes estimate   =   -6203.16728692 Ry
     estimated scf accuracy    <      73.59368437 Ry

     total magnetization       =    36.93 Bohr mag/cell
     absolute magnetization    =    47.35 Bohr mag/cell

     iteration #  6     ecut=    70.00 Ry     beta= 0.70
     Davidson diagonalization with overlap
     ethr =  8.39E-03,  avg # of iterations =  1.1

     total cpu time spent up to now is     6612.4 secs

     total energy              =   -6199.26920829 Ry
     Harris-Foulkes estimate   =   -6200.23853892 Ry
     estimated scf accuracy    <      28.67286370 Ry

     total magnetization       =    43.84 Bohr mag/cell
     absolute magnetization    =    54.23 Bohr mag/cell

     iteration #  7     ecut=    70.00 Ry     beta= 0.70
     Davidson diagonalization with overlap
     ethr =  6.59E-03,  avg # of iterations =  1.7

     total cpu time spent up to now is     7478.8 secs

     total energy              =   -6196.50733763 Ry
     Harris-Foulkes estimate   =   -6199.72587556 Ry
     estimated scf accuracy    <      20.34945199 Ry

     total magnetization       =    42.99 Bohr mag/cell
     absolute magnetization    =    54.27 Bohr mag/cell

     iteration #  8     ecut=    70.00 Ry     beta= 0.70
     Davidson diagonalization with overlap
     ethr =  4.68E-03,  avg # of iterations =  4.0

     total cpu time spent up to now is     8860.4 secs

     total energy              =   -6202.60919058 Ry
     Harris-Foulkes estimate   =   -6204.89202627 Ry
     estimated scf accuracy    <      67.66318568 Ry

     total magnetization       =    38.43 Bohr mag/cell
     absolute magnetization    =    40.52 Bohr mag/cell

     iteration #  9     ecut=    70.00 Ry     beta= 0.70
     Davidson diagonalization with overlap
     ethr =  4.68E-03,  avg # of iterations =  1.5

     total cpu time spent up to now is     9717.6 secs

     total energy              =   -6200.96796220 Ry
     Harris-Foulkes estimate   =   -6202.89009537 Ry
     estimated scf accuracy    <      43.23147697 Ry

     total magnetization       =    32.43 Bohr mag/cell
     absolute magnetization    =    37.03 Bohr mag/cell

     iteration # 10     ecut=    70.00 Ry     beta= 0.70
     Davidson diagonalization with overlap
     ethr =  4.68E-03,  avg # of iterations =  1.0

     total cpu time spent up to now is    10564.8 secs

     total energy              =   -6201.85866035 Ry
     Harris-Foulkes estimate   =   -6201.30687280 Ry
     estimated scf accuracy    <      16.01285875 Ry

     total magnetization       =    28.92 Bohr mag/cell
     absolute magnetization    =    38.15 Bohr mag/cell

     iteration # 11     ecut=    70.00 Ry     beta= 0.70
     Davidson diagonalization with overlap
     ethr =  3.68E-03,  avg # of iterations =  1.0

     total cpu time spent up to now is    11409.1 secs

     total energy              =   -6201.70065419 Ry
     Harris-Foulkes estimate   =   -6202.00799214 Ry
     estimated scf accuracy    <      30.44369079 Ry

     total magnetization       =    28.92 Bohr mag/cell
     absolute magnetization    =    36.18 Bohr mag/cell

     iteration # 12     ecut=    70.00 Ry     beta= 0.70
     Davidson diagonalization with overlap
     ethr =  3.68E-03,  avg # of iterations =  1.0

     total cpu time spent up to now is    12255.3 secs

     total energy              =   -6197.74789503 Ry
     Harris-Foulkes estimate   =   -6201.73250247 Ry
     estimated scf accuracy    <      25.98361791 Ry

     total magnetization       =    29.21 Bohr mag/cell
     absolute magnetization    =    36.72 Bohr mag/cell

     iteration # 13     ecut=    70.00 Ry     beta= 0.70
     Davidson diagonalization with overlap
     ethr =  3.68E-03,  avg # of iterations =  7.0

     total cpu time spent up to now is    13271.2 secs

     total energy              =   -6202.57070124 Ry
     Harris-Foulkes estimate   =   -6203.79864879 Ry
     estimated scf accuracy    <      23.37284678 Ry

     total magnetization       =    11.96 Bohr mag/cell
     absolute magnetization    =    33.43 Bohr mag/cell

     iteration # 14     ecut=    70.00 Ry     beta= 0.70
     Davidson diagonalization with overlap
     ethr =  3.68E-03,  avg # of iterations =  1.0

     total cpu time spent up to now is    14116.7 secs

     total energy              =   -6202.34430437 Ry
     Harris-Foulkes estimate   =   -6202.63076541 Ry
     estimated scf accuracy    <      19.56900500 Ry

     total magnetization       =    14.90 Bohr mag/cell
     absolute magnetization    =    34.15 Bohr mag/cell

     iteration # 15     ecut=    70.00 Ry     beta= 0.70
     Davidson diagonalization with overlap
     ethr =  3.68E-03,  avg # of iterations =  1.0

     total cpu time spent up to now is    14961.3 secs

     total energy              =   -6201.94330335 Ry
     Harris-Foulkes estimate   =   -6202.36044059 Ry
     estimated scf accuracy    <      19.04552994 Ry

     total magnetization       =    15.22 Bohr mag/cell
     absolute magnetization    =    34.09 Bohr mag/cell

     iteration # 16     ecut=    70.00 Ry     beta= 0.70
     Davidson diagonalization with overlap
     ethr =  3.68E-03,  avg # of iterations =  1.0

     total cpu time spent up to now is    15892.2 secs

     total energy              =   -6201.22016190 Ry
     Harris-Foulkes estimate   =   -6201.96773009 Ry
     estimated scf accuracy    <      17.84864319 Ry

     total magnetization       =    14.18 Bohr mag/cell
     absolute magnetization    =    33.92 Bohr mag/cell

     iteration # 17     ecut=    70.00 Ry     beta= 0.70
     Davidson diagonalization with overlap
     ethr =  3.68E-03,  avg # of iterations =  1.6

     total cpu time spent up to now is    16860.5 secs

     total energy              =   -6199.84964951 Ry
     Harris-Foulkes estimate   =   -6201.29131691 Ry
     estimated scf accuracy    <      13.35130023 Ry

     total magnetization       =    12.63 Bohr mag/cell
     absolute magnetization    =    33.20 Bohr mag/cell

     iteration # 18     ecut=    70.00 Ry     beta= 0.70
     Davidson diagonalization with overlap
     ethr =  3.07E-03,  avg # of iterations =  4.3

     total cpu time spent up to now is    18160.9 secs

     total energy              =   -6201.86860329 Ry
     Harris-Foulkes estimate   =   -6201.71204509 Ry
     estimated scf accuracy    <       8.83078088 Ry

     total magnetization       =     9.59 Bohr mag/cell
     absolute magnetization    =    32.86 Bohr mag/cell

     iteration # 19     ecut=    70.00 Ry     beta= 0.70
     Davidson diagonalization with overlap
     ethr =  2.03E-03,  avg # of iterations =  1.3

     total cpu time spent up to now is    19204.8 secs

     total energy              =   -6201.42510761 Ry
     Harris-Foulkes estimate   =   -6202.23147906 Ry
     estimated scf accuracy    <      15.77656407 Ry

     total magnetization       =     5.97 Bohr mag/cell
     absolute magnetization    =    32.90 Bohr mag/cell

     iteration # 20     ecut=    70.00 Ry     beta= 0.70
     Davidson diagonalization with overlap
     ethr =  2.03E-03,  avg # of iterations =  1.0

     total cpu time spent up to now is    20201.6 secs

     total energy              =   -6200.58525240 Ry
     Harris-Foulkes estimate   =   -6201.51888644 Ry
     estimated scf accuracy    <       8.80463007 Ry

     total magnetization       =     3.94 Bohr mag/cell
     absolute magnetization    =    33.47 Bohr mag/cell

     iteration # 21     ecut=    70.00 Ry     beta= 0.70
     Davidson diagonalization with overlap
     ethr =  2.02E-03,  avg # of iterations =  1.1

     total cpu time spent up to now is    21233.3 secs

     total energy              =   -6201.20430406 Ry
     Harris-Foulkes estimate   =   -6201.56903092 Ry
     estimated scf accuracy    <       8.49710598 Ry

     total magnetization       =     3.42 Bohr mag/cell
     absolute magnetization    =    33.49 Bohr mag/cell

     iteration # 22     ecut=    70.00 Ry     beta= 0.70
     Davidson diagonalization with overlap
     ethr =  1.95E-03,  avg # of iterations =  1.0

     total cpu time spent up to now is    22235.3 secs

     total energy              =   -6201.27123998 Ry
     Harris-Foulkes estimate   =   -6201.32093874 Ry
     estimated scf accuracy    <       1.63868820 Ry

     total magnetization       =    -1.55 Bohr mag/cell
     absolute magnetization    =    35.60 Bohr mag/cell

     iteration # 23     ecut=    70.00 Ry     beta= 0.70
     Davidson diagonalization with overlap
     ethr =  3.77E-04,  avg # of iterations =  1.1

     total cpu time spent up to now is    23230.2 secs

     total energy              =   -6201.30220876 Ry
     Harris-Foulkes estimate   =   -6201.29886782 Ry
     estimated scf accuracy    <       0.05776456 Ry

     total magnetization       =    -2.55 Bohr mag/cell
     absolute magnetization    =    36.05 Bohr mag/cell

     iteration # 24     ecut=    70.00 Ry     beta= 0.70
     Davidson diagonalization with overlap
     ethr =  1.33E-05,  avg # of iterations =  6.7

     total cpu time spent up to now is    25011.3 secs

     total energy              =   -6201.31235410 Ry
     Harris-Foulkes estimate   =   -6201.32233636 Ry
     estimated scf accuracy    <       0.72135956 Ry

     total magnetization       =    -3.97 Bohr mag/cell
     absolute magnetization    =    37.23 Bohr mag/cell

     iteration # 25     ecut=    70.00 Ry     beta= 0.70
     Davidson diagonalization with overlap
     ethr =  1.33E-05,  avg # of iterations =  1.0

     total cpu time spent up to now is    26022.5 secs

     total energy              =   -6201.28568979 Ry
     Harris-Foulkes estimate   =   -6201.31423518 Ry
     estimated scf accuracy    <       0.36401097 Ry

     total magnetization       =    -4.06 Bohr mag/cell
     absolute magnetization    =    37.31 Bohr mag/cell

     iteration # 26     ecut=    70.00 Ry     beta= 0.70
     Davidson diagonalization with overlap
     ethr =  1.33E-05,  avg # of iterations =  5.2

     total cpu time spent up to now is    27230.9 secs

     total energy              =   -6201.30460063 Ry
     Harris-Foulkes estimate   =   -6201.31925370 Ry
     estimated scf accuracy    <       0.55058390 Ry

     total magnetization       =    -4.81 Bohr mag/cell
     absolute magnetization    =    37.85 Bohr mag/cell

     iteration # 27     ecut=    70.00 Ry     beta= 0.70
     Davidson diagonalization with overlap
     ethr =  1.33E-05,  avg # of iterations =  1.7

     total cpu time spent up to now is    28282.6 secs

     total energy              =   -6201.30816632 Ry
     Harris-Foulkes estimate   =   -6201.30996253 Ry
     estimated scf accuracy    <       0.07067515 Ry

     total magnetization       =    -4.59 Bohr mag/cell
     absolute magnetization    =    37.85 Bohr mag/cell

     iteration # 28     ecut=    70.00 Ry     beta= 0.70
     Davidson diagonalization with overlap
     ethr =  1.33E-05,  avg # of iterations =  1.0

     total cpu time spent up to now is    29341.5 secs

     total energy              =   -6201.30786096 Ry
     Harris-Foulkes estimate   =   -6201.30919789 Ry
     estimated scf accuracy    <       0.01941249 Ry

     total magnetization       =    -4.61 Bohr mag/cell
     absolute magnetization    =    37.92 Bohr mag/cell

     iteration # 29     ecut=    70.00 Ry     beta= 0.70
     Davidson diagonalization with overlap
     ethr =  4.46E-06,  avg # of iterations =  2.7

     total cpu time spent up to now is    30435.5 secs

     total energy              =   -6201.30990440 Ry
     Harris-Foulkes estimate   =   -6201.30969390 Ry
     estimated scf accuracy    <       0.00343445 Ry

     total magnetization       =    -5.55 Bohr mag/cell
     absolute magnetization    =    38.66 Bohr mag/cell

     iteration # 30     ecut=    70.00 Ry     beta= 0.70
     Davidson diagonalization with overlap
     ethr =  7.90E-07,  avg # of iterations =  4.3

     total cpu time spent up to now is    31478.5 secs

     total energy              =   -6201.30897444 Ry
     Harris-Foulkes estimate   =   -6201.31020729 Ry
     estimated scf accuracy    <       0.01000834 Ry

     total magnetization       =    -5.44 Bohr mag/cell
     absolute magnetization    =    38.76 Bohr mag/cell

     iteration # 31     ecut=    70.00 Ry     beta= 0.70
     Davidson diagonalization with overlap
     ethr =  7.90E-07,  avg # of iterations =  2.2

     total cpu time spent up to now is    32373.7 secs

     total energy              =   -6201.30927553 Ry
     Harris-Foulkes estimate   =   -6201.30952163 Ry
     estimated scf accuracy    <       0.00047236 Ry

     total magnetization       =    -5.05 Bohr mag/cell
     absolute magnetization    =    38.35 Bohr mag/cell

     iteration # 32     ecut=    70.00 Ry     beta= 0.70
     Davidson diagonalization with overlap
     ethr =  1.09E-07,  avg # of iterations =  4.5

     total cpu time spent up to now is    33430.9 secs

     total energy              =   -6201.30949128 Ry
     Harris-Foulkes estimate   =   -6201.30944530 Ry
     estimated scf accuracy    <       0.00035561 Ry

     total magnetization       =    -4.93 Bohr mag/cell
     absolute magnetization    =    38.32 Bohr mag/cell

     iteration # 33     ecut=    70.00 Ry     beta= 0.70
     Davidson diagonalization with overlap
     ethr =  8.18E-08,  avg # of iterations =  3.6

     total cpu time spent up to now is    34416.7 secs

     total energy              =   -6201.30950544 Ry
     Harris-Foulkes estimate   =   -6201.30958140 Ry
     estimated scf accuracy    <       0.00023094 Ry

     total magnetization       =    -4.92 Bohr mag/cell
     absolute magnetization    =    38.53 Bohr mag/cell

     iteration # 34     ecut=    70.00 Ry     beta= 0.70
     Davidson diagonalization with overlap
     ethr =  5.31E-08,  avg # of iterations =  4.7

     total cpu time spent up to now is    35941.0 secs

     total energy              =   -6201.30989643 Ry
     Harris-Foulkes estimate   =   -6201.30990254 Ry
     estimated scf accuracy    <       0.00068750 Ry

     total magnetization       =    -4.96 Bohr mag/cell
     absolute magnetization    =    39.11 Bohr mag/cell

     iteration # 35     ecut=    70.00 Ry     beta= 0.70
     Davidson diagonalization with overlap
     ethr =  5.31E-08,  avg # of iterations =  2.8

     total cpu time spent up to now is    36905.5 secs

     total energy              =   -6201.30998915 Ry
     Harris-Foulkes estimate   =   -6201.30996195 Ry
     estimated scf accuracy    <       0.00010860 Ry

     total magnetization       =    -4.99 Bohr mag/cell
     absolute magnetization    =    39.30 Bohr mag/cell

     iteration # 36     ecut=    70.00 Ry     beta= 0.70
     Davidson diagonalization with overlap
     ethr =  2.50E-08,  avg # of iterations =  4.2

     total cpu time spent up to now is    38300.1 secs

     total energy              =   -6201.30992212 Ry
     Harris-Foulkes estimate   =   -6201.31008787 Ry
     estimated scf accuracy    <       0.00032673 Ry

     total magnetization       =    -4.97 Bohr mag/cell
     absolute magnetization    =    39.62 Bohr mag/cell

     iteration # 37     ecut=    70.00 Ry     beta= 0.70
     Davidson diagonalization with overlap
     ethr =  2.50E-08,  avg # of iterations =  5.1

     total cpu time spent up to now is    39925.0 secs

     total energy              =   -6201.31024346 Ry
     Harris-Foulkes estimate   =   -6201.31027255 Ry
     estimated scf accuracy    <       0.00007765 Ry

     total magnetization       =    -4.99 Bohr mag/cell
     absolute magnetization    =    40.25 Bohr mag/cell

     iteration # 38     ecut=    70.00 Ry     beta= 0.70
     Davidson diagonalization with overlap
     ethr =  1.78E-08,  avg # of iterations =  4.3

     total cpu time spent up to now is    41406.7 secs

     total energy              =   -6201.31027423 Ry
     Harris-Foulkes estimate   =   -6201.31034932 Ry
     estimated scf accuracy    <       0.00010119 Ry

     total magnetization       =    -4.95 Bohr mag/cell
     absolute magnetization    =    40.58 Bohr mag/cell

     iteration # 39     ecut=    70.00 Ry     beta= 0.70
     Davidson diagonalization with overlap
     ethr =  1.78E-08,  avg # of iterations =  4.6

     total cpu time spent up to now is    42872.7 secs

     total energy              =   -6201.31041539 Ry
     Harris-Foulkes estimate   =   -6201.31042674 Ry
     estimated scf accuracy    <       0.00026360 Ry

     total magnetization       =    -4.88 Bohr mag/cell
     absolute magnetization    =    40.98 Bohr mag/cell

     iteration # 40     ecut=    70.00 Ry     beta= 0.70
     Davidson diagonalization with overlap
     ethr =  1.78E-08,  avg # of iterations =  2.0

     total cpu time spent up to now is    43756.9 secs

     total energy              =   -6201.31037571 Ry
     Harris-Foulkes estimate   =   -6201.31043205 Ry
     estimated scf accuracy    <       0.00006880 Ry

     total magnetization       =    -4.84 Bohr mag/cell
     absolute magnetization    =    41.05 Bohr mag/cell

     iteration # 41     ecut=    70.00 Ry     beta= 0.70
     Davidson diagonalization with overlap
     ethr =  1.58E-08,  avg # of iterations =  4.4

     total cpu time spent up to now is    45202.8 secs

     total energy              =   -6201.31041936 Ry
     Harris-Foulkes estimate   =   -6201.31046838 Ry
     estimated scf accuracy    <       0.00001428 Ry

     total magnetization       =    -4.73 Bohr mag/cell
     absolute magnetization    =    41.34 Bohr mag/cell

     iteration # 42     ecut=    70.00 Ry     beta= 0.70
     Davidson diagonalization with overlap
     ethr =  3.28E-09,  avg # of iterations =  5.1

     total cpu time spent up to now is    46963.0 secs

     total energy              =   -6201.31048222 Ry
     Harris-Foulkes estimate   =   -6201.31048352 Ry
     estimated scf accuracy    <       0.00000540 Ry

     total magnetization       =    -4.67 Bohr mag/cell
     absolute magnetization    =    41.61 Bohr mag/cell

     iteration # 43     ecut=    70.00 Ry     beta= 0.70
     Davidson diagonalization with overlap
     ethr =  1.24E-09,  avg # of iterations =  4.0

     total cpu time spent up to now is    48258.4 secs

     total energy              =   -6201.31048631 Ry
     Harris-Foulkes estimate   =   -6201.31048718 Ry
     estimated scf accuracy    <       0.00002024 Ry

     total magnetization       =    -4.64 Bohr mag/cell
     absolute magnetization    =    41.68 Bohr mag/cell

     iteration # 44     ecut=    70.00 Ry     beta= 0.70
     Davidson diagonalization with overlap
     ethr =  1.24E-09,  avg # of iterations =  3.9

     total cpu time spent up to now is    49318.6 secs

     total energy              =   -6201.31048870 Ry
     Harris-Foulkes estimate   =   -6201.31048854 Ry
     estimated scf accuracy    <       0.00001551 Ry

     total magnetization       =    -4.62 Bohr mag/cell
     absolute magnetization    =    41.72 Bohr mag/cell

     iteration # 45     ecut=    70.00 Ry     beta= 0.70
     Davidson diagonalization with overlap
     ethr =  1.24E-09,  avg # of iterations =  1.0

     total cpu time spent up to now is    50227.6 secs

     total energy              =   -6201.31048568 Ry
     Harris-Foulkes estimate   =   -6201.31048880 Ry
     estimated scf accuracy    <       0.00001456 Ry

     total magnetization       =    -4.62 Bohr mag/cell
     absolute magnetization    =    41.72 Bohr mag/cell

     iteration # 46     ecut=    70.00 Ry     beta= 0.70
     Davidson diagonalization with overlap
     ethr =  1.24E-09,  avg # of iterations =  3.4

     total cpu time spent up to now is    51317.0 secs

     total energy              =   -6201.31048654 Ry
     Harris-Foulkes estimate   =   -6201.31048740 Ry
     estimated scf accuracy    <       0.00000779 Ry

     total magnetization       =    -4.62 Bohr mag/cell
     absolute magnetization    =    41.68 Bohr mag/cell

     iteration # 47     ecut=    70.00 Ry     beta= 0.70
     Davidson diagonalization with overlap
     ethr =  1.24E-09,  avg # of iterations =  1.1

     total cpu time spent up to now is    52309.9 secs

     total energy              =   -6201.31048614 Ry
     Harris-Foulkes estimate   =   -6201.31048685 Ry
     estimated scf accuracy    <       0.00000429 Ry

     total magnetization       =    -4.63 Bohr mag/cell
     absolute magnetization    =    41.69 Bohr mag/cell

     iteration # 48     ecut=    70.00 Ry     beta= 0.70
     Davidson diagonalization with overlap
     ethr =  9.87E-10,  avg # of iterations =  3.9

     total cpu time spent up to now is    53523.0 secs

     total energy              =   -6201.31048572 Ry
     Harris-Foulkes estimate   =   -6201.31048767 Ry
     estimated scf accuracy    <       0.00000866 Ry

     total magnetization       =    -4.62 Bohr mag/cell
     absolute magnetization    =    41.73 Bohr mag/cell

     iteration # 49     ecut=    70.00 Ry     beta= 0.70
     Davidson diagonalization with overlap
     ethr =  9.87E-10,  avg # of iterations =  2.5

     total cpu time spent up to now is    54531.0 secs

     total energy              =   -6201.31048694 Ry
     Harris-Foulkes estimate   =   -6201.31048662 Ry
     estimated scf accuracy    <       0.00000500 Ry

     total magnetization       =    -4.61 Bohr mag/cell
     absolute magnetization    =    41.73 Bohr mag/cell

     iteration # 50     ecut=    70.00 Ry     beta= 0.70
     Davidson diagonalization with overlap
     ethr =  9.87E-10,  avg # of iterations =  2.2

     total cpu time spent up to now is    55454.2 secs

     total energy              =   -6201.31048426 Ry
     Harris-Foulkes estimate   =   -6201.31048806 Ry
     estimated scf accuracy    <       0.00002516 Ry

     total magnetization       =    -4.61 Bohr mag/cell
     absolute magnetization    =    41.73 Bohr mag/cell

     iteration # 51     ecut=    70.00 Ry     beta= 0.70
     Davidson diagonalization with overlap
     ethr =  9.87E-10,  avg # of iterations =  3.9

     total cpu time spent up to now is    56444.0 secs

     total energy              =   -6201.31048513 Ry
     Harris-Foulkes estimate   =   -6201.31048623 Ry
     estimated scf accuracy    <       0.00000400 Ry

     total magnetization       =    -4.61 Bohr mag/cell
     absolute magnetization    =    41.74 Bohr mag/cell

     iteration # 52     ecut=    70.00 Ry     beta= 0.70
     Davidson diagonalization with overlap
     ethr =  9.20E-10,  avg # of iterations =  3.5

     Magnetic moment per site:
     atom:    1    charge:   12.6587    magn:    0.1157    constr:    0.0000
     atom:    2    charge:   12.6821    magn:   -2.9379    constr:    0.0000
     atom:    3    charge:   12.6821    magn:   -2.9379    constr:    0.0000
     atom:    4    charge:   12.6821    magn:   -2.9379    constr:    0.0000
     atom:    5    charge:   12.6821    magn:   -2.9379    constr:    0.0000
     atom:    6    charge:   12.8186    magn:   -0.7765    constr:    0.0000
     atom:    7    charge:   12.8186    magn:   -0.7765    constr:    0.0000
     atom:    8    charge:   12.8186    magn:   -0.7765    constr:    0.0000
     atom:    9    charge:   12.8186    magn:   -0.7765    constr:    0.0000
     atom:   10    charge:   12.8186    magn:   -0.7765    constr:    0.0000
     atom:   11    charge:   12.8186    magn:   -0.7765    constr:    0.0000
     atom:   12    charge:   12.8186    magn:   -0.7765    constr:    0.0000
     atom:   13    charge:   12.8186    magn:   -0.7765    constr:    0.0000
     atom:   14    charge:   12.8186    magn:   -0.7765    constr:    0.0000
     atom:   15    charge:   12.8186    magn:   -0.7765    constr:    0.0000
     atom:   16    charge:   12.8186    magn:   -0.7765    constr:    0.0000
     atom:   17    charge:   12.8186    magn:   -0.7765    constr:    0.0000
     atom:   18    charge:   12.7559    magn:    1.3964    constr:    0.0000
     atom:   19    charge:   12.7559    magn:    1.3964    constr:    0.0000
     atom:   20    charge:   12.7559    magn:    1.3964    constr:    0.0000
     atom:   21    charge:   12.7559    magn:    1.3964    constr:    0.0000
     atom:   22    charge:   12.7559    magn:    1.3964    constr:    0.0000
     atom:   23    charge:   12.7559    magn:    1.3964    constr:    0.0000
     atom:   24    charge:   12.7559    magn:    1.3964    constr:    0.0000
     atom:   25    charge:   12.7559    magn:    1.3964    constr:    0.0000
     atom:   26    charge:   12.7559    magn:    1.3964    constr:    0.0000
     atom:   27    charge:   12.7559    magn:    1.3964    constr:    0.0000
     atom:   28    charge:   12.7559    magn:    1.3964    constr:    0.0000
     atom:   29    charge:   12.7559    magn:    1.3964    constr:    0.0000

     total cpu time spent up to now is    57451.0 secs

     End of self-consistent calculation

 ------ SPIN UP ------------


          k = 0.0000 0.0000 0.0000 ( 23623 PWs)   bands (ev):

   -62.6492 -62.6247 -62.6247 -62.6247 -62.6160 -62.6160 -62.6032 -62.6032
   -62.6032 -62.6013 -62.6013 -62.6013 -61.8775 -61.3457 -61.3230 -61.3230
   -61.3230 -61.2977 -61.2977 -61.2488 -61.2488 -61.2488 -61.2232 -61.2232
   -61.2232 -59.9196 -59.9196 -59.9196 -59.9194 -31.4803 -31.4803 -31.4803
   -31.4721 -31.4721 -31.4709 -31.4709 -31.4709 -31.4406 -31.4406 -31.4406
   -31.4025 -31.4021 -31.4021 -31.3737 -31.3737 -31.3709 -31.3709 -31.3709
   -31.3653 -31.3374 -31.3374 -31.3374 -31.2769 -31.2769 -31.2769 -31.2537
   -31.2537 -31.2537 -31.1904 -31.1904 -31.1904 -31.1789 -31.1642 -31.1642
   -31.1642 -30.6051 -30.6051 -30.6051 -30.4434 -30.3714 -30.3714 -30.3714
   -30.3056 -30.3056 -30.1091 -30.1063 -30.1063 -30.1063 -30.0883 -30.0883
   -30.0883 -30.0742 -30.0742 -30.0742 -30.0536 -30.0536 -29.9327 -29.9327
   -29.9327 -29.9048 -29.8812 -29.8812 -29.8812 -29.8806 -29.8806 -29.8726
   -29.8726 -29.8726 -29.8718 -29.8718 -29.8718 -29.8132 -29.8132 -29.8132
   -28.7319 -28.7319 -28.7319 -28.7307 -28.7307 -28.7303 -28.7303 -28.7303
   -28.6725 -28.6725 -28.6725 -28.6718   9.4823  12.6985  12.6985  12.6985
    12.8516  12.8522  12.8522  12.8522  12.9056  12.9056  12.9056  12.9803
    12.9803  13.6030  13.7073  13.7073  13.7073  13.7785  13.7785  13.9743
    13.9743  13.9743  14.1468  14.2384  14.2384  14.2384  14.3864  14.4974
    14.4974  14.4974  14.5633  14.5633  14.8080  14.8080  14.8080  14.8631
    14.8631  14.8631  14.9498  14.9498  14.9498  15.0457  15.0475  15.0475
    15.2661  15.2661  15.2661  15.4061  15.4061  15.4061  15.4077  15.4077
    15.4077  15.5314  15.5350  15.5350  15.5350  15.5935  15.5935  15.6442
    15.6442  15.6442  15.8612  15.8612  15.8729  15.9048  15.9048  15.9048
    15.9544  15.9544  15.9544  16.0374  16.1140  16.1140  16.1140  16.2132
    16.2132  16.2132  16.2350  16.2350  16.4983  16.4983  16.7278  16.7278
    16.7278  16.7343  16.7343  16.7343  16.9879  16.9879  16.9879  17.0376
    17.2458  17.2458  17.3849  17.3849  17.3849  17.4532  17.4532  17.5352
    17.5352  17.5352  17.6280  17.6280  17.6280  17.7118  17.7118  17.7118
    17.7844  17.7844  17.7844  17.8522  17.8522  17.9426  17.9426  17.9426
    18.0479  18.0479  18.1553  18.1553  18.1553  18.4945  18.4945  18.4945
    18.5262  18.5262  18.5262  18.5735  18.5735  18.6932  18.6932  18.6932
    18.7686  18.7928  18.7928  18.7928  18.9184  19.0887  19.0887  19.0887
    19.1066  19.1066  19.1066  19.1986  19.2977  19.2977

     occupation numbers 
     1.0000   1.0000   1.0000   1.0000   1.0000   1.0000   1.0000   1.0000
     1.0000   1.0000   1.0000   1.0000   1.0000   1.0000   1.0000   1.0000
     1.0000   1.0000   1.0000   1.0000   1.0000   1.0000   1.0000   1.0000
     1.0000   1.0000   1.0000   1.0000   1.0000   1.0000   1.0000   1.0000
     1.0000   1.0000   1.0000   1.0000   1.0000   1.0000   1.0000   1.0000
     1.0000   1.0000   1.0000   1.0000   1.0000   1.0000   1.0000   1.0000
     1.0000   1.0000   1.0000   1.0000   1.0000   1.0000   1.0000   1.0000
     1.0000   1.0000   1.0000   1.0000   1.0000   1.0000   1.0000   1.0000
     1.0000   1.0000   1.0000   1.0000   1.0000   1.0000   1.0000   1.0000
     1.0000   1.0000   1.0000   1.0000   1.0000   1.0000   1.0000   1.0000
     1.0000   1.0000   1.0000   1.0000   1.0000   1.0000   1.0000   1.0000
     1.0000   1.0000   1.0000   1.0000   1.0000   1.0000   1.0000   1.0000
     1.0000   1.0000   1.0000   1.0000   1.0000   1.0000   1.0000   1.0000
     1.0000   1.0000   1.0000   1.0000   1.0000   1.0000   1.0000   1.0000
     1.0000   1.0000   1.0000   1.0000   1.0000   1.0000   1.0000   1.0000
     1.0000   1.0000   1.0000   1.0000   1.0000   1.0000   1.0000   1.0000
     1.0000   1.0000   1.0000   1.0000   1.0000   1.0000   1.0000   1.0000
     1.0000   1.0000   1.0000   1.0000   1.0000   1.0000   1.0000   1.0000
     1.0000   1.0000   1.0000   1.0000   1.0000   1.0000   1.0000   1.0000
     1.0000   1.0000   1.0000   1.0000   1.0000   1.0000   1.0000   1.0000
     1.0000   1.0000   1.0000   1.0000   1.0000   1.0000   1.0000   1.0000
     1.0000   1.0000   1.0000   1.0000   1.0000   1.0000   1.0000   1.0000
     1.0000   1.0000   1.0000   1.0000   1.0000   1.0000   1.0000   1.0000
     1.0000   1.0000   1.0000   1.0000   1.0000   1.0000   1.0000   1.0001
     1.0001   1.0001   1.0001   1.0001   1.0024   1.0024   1.0157   1.0157
     1.0157   1.0164   1.0164   1.0164   1.0339   1.0339   1.0339   1.0260
     0.8692   0.8692   0.6316   0.6316   0.6316   0.4919   0.4919   0.3261
     0.3261   0.3261   0.1658   0.1658   0.1658   0.0615   0.0615   0.0615
     0.0047   0.0047   0.0047  -0.0237  -0.0237  -0.0354  -0.0354  -0.0354
    -0.0291  -0.0291  -0.0173  -0.0173  -0.0173  -0.0009  -0.0009  -0.0009
    -0.0006  -0.0006  -0.0006  -0.0003  -0.0003  -0.0001  -0.0001  -0.0001
    -0.0000  -0.0000  -0.0000  -0.0000  -0.0000  -0.0000  -0.0000  -0.0000
    -0.0000  -0.0000  -0.0000  -0.0000  -0.0000  -0.0000

          k = 0.1237 0.1237 0.0000 ( 23663 PWs)   bands (ev):

   -62.6484 -62.6271 -62.6249 -62.6247 -62.6156 -62.6142 -62.6033 -62.6033
   -62.6032 -62.6013 -62.6013 -62.6012 -61.8775 -61.3460 -61.3230 -61.3230
   -61.3227 -61.2978 -61.2977 -61.2488 -61.2487 -61.2487 -61.2233 -61.2233
   -61.2232 -59.9196 -59.9196 -59.9196 -59.9194 -31.4825 -31.4814 -31.4805
   -31.4744 -31.4736 -31.4720 -31.4700 -31.4679 -31.4420 -31.4414 -31.4365
   -31.4031 -31.4028 -31.4014 -31.3872 -31.3804 -31.3675 -31.3671 -31.3618
   -31.3569 -31.3380 -31.3367 -31.3362 -31.2792 -31.2762 -31.2705 -31.2544
   -31.2543 -31.2536 -31.1919 -31.1911 -31.1898 -31.1781 -31.1687 -31.1647
   -31.1647 -30.6051 -30.6051 -30.6051 -30.4448 -30.3711 -30.3710 -30.3698
   -30.3062 -30.3055 -30.1120 -30.1071 -30.1062 -30.1033 -30.0888 -30.0880
   -30.0876 -30.0743 -30.0742 -30.0741 -30.0531 -30.0529 -29.9333 -29.9330
   -29.9327 -29.9042 -29.8846 -29.8841 -29.8818 -29.8812 -29.8805 -29.8729
   -29.8724 -29.8714 -29.8710 -29.8704 -29.8692 -29.8131 -29.8131 -29.8130
   -28.7320 -28.7319 -28.7319 -28.7311 -28.7309 -28.7302 -28.7301 -28.7299
   -28.6728 -28.6725 -28.6725 -28.6717   9.5702  12.1803  12.5006  12.5649
    12.5681  12.6124  12.8401  12.9398  13.1001  13.1007  13.1807  13.2139
    13.3139  13.6136  13.6458  13.6798  13.6977  13.7806  13.7984  13.9389
    13.9610  14.0211  14.1126  14.2005  14.2245  14.2271  14.4595  14.5083
    14.5372  14.5702  14.5842  14.6484  14.8083  14.8157  14.8234  14.8719
    14.8721  14.8811  14.9289  14.9468  14.9637  15.0655  15.0682  15.0780
    15.2493  15.2553  15.2760  15.3416  15.3846  15.3866  15.4094  15.4220
    15.4245  15.4485  15.4708  15.5279  15.5281  15.5677  15.6059  15.6531
    15.6562  15.7053  15.7653  15.8044  15.8191  15.8661  15.9127  15.9499
    15.9669  16.0048  16.0280  16.0520  16.1056  16.1105  16.1909  16.1990
    16.2074  16.2458  16.2860  16.3179  16.4873  16.5116  16.6161  16.6485
    16.6806  16.7368  16.7372  16.7603  16.9463  16.9632  17.0091  17.0455
    17.1669  17.1841  17.3387  17.3856  17.3856  17.4056  17.4610  17.5539
    17.5600  17.5919  17.6201  17.6277  17.6396  17.7052  17.7110  17.7236
    17.7863  17.8068  17.8311  17.8469  17.8487  17.9394  17.9720  17.9866
    18.0742  18.1120  18.1386  18.1864  18.2131  18.4307  18.4414  18.4838
    18.4851  18.5441  18.5702  18.6123  18.6130  18.6976  18.7260  18.7587
    18.7974  18.7993  18.8086  18.8182  18.8503  19.0175  19.0568  19.0682
    19.0877  19.1016  19.1351  19.2012  19.2769  19.2788

     occupation numbers 
     1.0000   1.0000   1.0000   1.0000   1.0000   1.0000   1.0000   1.0000
     1.0000   1.0000   1.0000   1.0000   1.0000   1.0000   1.0000   1.0000
     1.0000   1.0000   1.0000   1.0000   1.0000   1.0000   1.0000   1.0000
     1.0000   1.0000   1.0000   1.0000   1.0000   1.0000   1.0000   1.0000
     1.0000   1.0000   1.0000   1.0000   1.0000   1.0000   1.0000   1.0000
     1.0000   1.0000   1.0000   1.0000   1.0000   1.0000   1.0000   1.0000
     1.0000   1.0000   1.0000   1.0000   1.0000   1.0000   1.0000   1.0000
     1.0000   1.0000   1.0000   1.0000   1.0000   1.0000   1.0000   1.0000
     1.0000   1.0000   1.0000   1.0000   1.0000   1.0000   1.0000   1.0000
     1.0000   1.0000   1.0000   1.0000   1.0000   1.0000   1.0000   1.0000
     1.0000   1.0000   1.0000   1.0000   1.0000   1.0000   1.0000   1.0000
     1.0000   1.0000   1.0000   1.0000   1.0000   1.0000   1.0000   1.0000
     1.0000   1.0000   1.0000   1.0000   1.0000   1.0000   1.0000   1.0000
     1.0000   1.0000   1.0000   1.0000   1.0000   1.0000   1.0000   1.0000
     1.0000   1.0000   1.0000   1.0000   1.0000   1.0000   1.0000   1.0000
     1.0000   1.0000   1.0000   1.0000   1.0000   1.0000   1.0000   1.0000
     1.0000   1.0000   1.0000   1.0000   1.0000   1.0000   1.0000   1.0000
     1.0000   1.0000   1.0000   1.0000   1.0000   1.0000   1.0000   1.0000
     1.0000   1.0000   1.0000   1.0000   1.0000   1.0000   1.0000   1.0000
     1.0000   1.0000   1.0000   1.0000   1.0000   1.0000   1.0000   1.0000
     1.0000   1.0000   1.0000   1.0000   1.0000   1.0000   1.0000   1.0000
     1.0000   1.0000   1.0000   1.0000   1.0000   1.0000   1.0000   1.0000
     1.0000   1.0000   1.0000   1.0000   1.0000   1.0000   1.0000   1.0000
     1.0000   1.0000   1.0000   1.0000   1.0000   1.0000   1.0001   1.0001
     1.0001   1.0001   1.0002   1.0003   1.0021   1.0027   1.0070   1.0090
     1.0114   1.0166   1.0167   1.0191   1.0354   1.0353   1.0315   1.0240
     0.9569   0.9410   0.7202   0.6302   0.6301   0.5898   0.4756   0.2908
     0.2795   0.2232   0.1779   0.1662   0.1489   0.0682   0.0623   0.0502
     0.0037  -0.0070  -0.0171  -0.0222  -0.0228  -0.0354  -0.0350  -0.0343
    -0.0262  -0.0220  -0.0190  -0.0142  -0.0118  -0.0018  -0.0016  -0.0010
    -0.0010  -0.0005  -0.0004  -0.0002  -0.0002  -0.0001  -0.0000  -0.0000
    -0.0000  -0.0000  -0.0000  -0.0000  -0.0000  -0.0000  -0.0000  -0.0000
    -0.0000  -0.0000  -0.0000  -0.0000  -0.0000  -0.0000

          k = 0.2474 0.2474 0.0000 ( 23652 PWs)   bands (ev):

   -62.6462 -62.6318 -62.6254 -62.6247 -62.6147 -62.6116 -62.6037 -62.6035
   -62.6031 -62.6013 -62.6013 -62.6012 -61.8775 -61.3467 -61.3230 -61.3229
   -61.3222 -61.2979 -61.2976 -61.2488 -61.2486 -61.2484 -61.2235 -61.2234
   -61.2233 -59.9196 -59.9196 -59.9196 -59.9194 -31.4855 -31.4845 -31.4811
   -31.4789 -31.4748 -31.4731 -31.4698 -31.4636 -31.4451 -31.4429 -31.4276
   -31.4086 -31.4043 -31.3995 -31.3929 -31.3862 -31.3733 -31.3591 -31.3513
   -31.3466 -31.3390 -31.3347 -31.3326 -31.2851 -31.2746 -31.2560 -31.2559
   -31.2551 -31.2512 -31.1955 -31.1928 -31.1882 -31.1814 -31.1757 -31.1663
   -31.1661 -30.6053 -30.6051 -30.6050 -30.4477 -30.3703 -30.3701 -30.3663
   -30.3076 -30.3054 -30.1154 -30.1089 -30.1058 -30.0996 -30.0901 -30.0872
   -30.0864 -30.0745 -30.0741 -30.0739 -30.0520 -30.0514 -29.9346 -29.9336
   -29.9325 -29.9028 -29.8897 -29.8880 -29.8829 -29.8825 -29.8805 -29.8751
   -29.8724 -29.8703 -29.8684 -29.8677 -29.8652 -29.8129 -29.8128 -29.8127
   -28.7322 -28.7321 -28.7321 -28.7313 -28.7312 -28.7300 -28.7298 -28.7295
   -28.6732 -28.6725 -28.6723 -28.6716   9.8301  11.4759  12.2949  12.3651
    12.3657  12.4113  12.9712  13.0439  13.2677  13.3367  13.4085  13.4588
    13.4665  13.5477  13.6118  13.6437  13.7626  13.7926  13.8023  13.8525
    13.9125  14.0124  14.1575  14.1786  14.2234  14.2748  14.4959  14.5354
    14.5849  14.6118  14.6526  14.7719  14.7735  14.8045  14.8678  14.8830
    14.9039  14.9093  14.9441  14.9948  15.0228  15.0800  15.1053  15.1403
    15.2174  15.2223  15.2598  15.2727  15.3080  15.3300  15.3842  15.4289
    15.4544  15.4586  15.4867  15.4984  15.5208  15.5545  15.5889  15.6287
    15.6307  15.7445  15.7741  15.7808  15.8232  15.8645  15.8978  15.9426
    15.9575  15.9803  16.0508  16.0749  16.1416  16.1603  16.1607  16.2209
    16.2564  16.3152  16.3582  16.3957  16.4684  16.5235  16.5801  16.5945
    16.6000  16.7091  16.7269  16.7732  16.8261  16.8924  16.9630  17.0005
    17.0539  17.1065  17.2175  17.3248  17.3620  17.4193  17.4261  17.5225
    17.5410  17.5756  17.6285  17.6788  17.7026  17.7317  17.7361  17.7641
    17.7926  17.8252  17.8291  17.9233  17.9306  17.9317  17.9893  18.1153
    18.1535  18.1645  18.2186  18.2495  18.2829  18.3642  18.3938  18.4723
    18.4868  18.5475  18.5952  18.5974  18.6364  18.6638  18.7149  18.8163
    18.8297  18.8513  18.8936  18.9216  18.9229  18.9639  18.9763  19.0121
    19.1008  19.1291  19.1422  19.2108  19.2673  19.2719

     occupation numbers 
     1.0000   1.0000   1.0000   1.0000   1.0000   1.0000   1.0000   1.0000
     1.0000   1.0000   1.0000   1.0000   1.0000   1.0000   1.0000   1.0000
     1.0000   1.0000   1.0000   1.0000   1.0000   1.0000   1.0000   1.0000
     1.0000   1.0000   1.0000   1.0000   1.0000   1.0000   1.0000   1.0000
     1.0000   1.0000   1.0000   1.0000   1.0000   1.0000   1.0000   1.0000
     1.0000   1.0000   1.0000   1.0000   1.0000   1.0000   1.0000   1.0000
     1.0000   1.0000   1.0000   1.0000   1.0000   1.0000   1.0000   1.0000
     1.0000   1.0000   1.0000   1.0000   1.0000   1.0000   1.0000   1.0000
     1.0000   1.0000   1.0000   1.0000   1.0000   1.0000   1.0000   1.0000
     1.0000   1.0000   1.0000   1.0000   1.0000   1.0000   1.0000   1.0000
     1.0000   1.0000   1.0000   1.0000   1.0000   1.0000   1.0000   1.0000
     1.0000   1.0000   1.0000   1.0000   1.0000   1.0000   1.0000   1.0000
     1.0000   1.0000   1.0000   1.0000   1.0000   1.0000   1.0000   1.0000
     1.0000   1.0000   1.0000   1.0000   1.0000   1.0000   1.0000   1.0000
     1.0000   1.0000   1.0000   1.0000   1.0000   1.0000   1.0000   1.0000
     1.0000   1.0000   1.0000   1.0000   1.0000   1.0000   1.0000   1.0000
     1.0000   1.0000   1.0000   1.0000   1.0000   1.0000   1.0000   1.0000
     1.0000   1.0000   1.0000   1.0000   1.0000   1.0000   1.0000   1.0000
     1.0000   1.0000   1.0000   1.0000   1.0000   1.0000   1.0000   1.0000
     1.0000   1.0000   1.0000   1.0000   1.0000   1.0000   1.0000   1.0000
     1.0000   1.0000   1.0000   1.0000   1.0000   1.0000   1.0000   1.0000
     1.0000   1.0000   1.0000   1.0000   1.0000   1.0000   1.0000   1.0000
     1.0000   1.0000   1.0000   1.0000   1.0000   1.0000   1.0000   1.0000
     1.0000   1.0000   1.0000   1.0000   1.0000   1.0000   1.0000   1.0001
     1.0001   1.0003   1.0005   1.0008   1.0018   1.0031   1.0051   1.0058
     1.0061   1.0139   1.0156   1.0205   1.0265   1.0330   1.0353   1.0326
     1.0216   0.9995   0.9050   0.7452   0.6763   0.5619   0.5479   0.3508
     0.3150   0.2513   0.1651   0.0975   0.0709   0.0429   0.0391   0.0176
     0.0001  -0.0149  -0.0164  -0.0348  -0.0351  -0.0352  -0.0342  -0.0216
    -0.0175  -0.0163  -0.0114  -0.0091  -0.0070  -0.0034  -0.0026  -0.0011
    -0.0010  -0.0005  -0.0003  -0.0003  -0.0002  -0.0001  -0.0001  -0.0000
    -0.0000  -0.0000  -0.0000  -0.0000  -0.0000  -0.0000  -0.0000  -0.0000
    -0.0000  -0.0000  -0.0000  -0.0000  -0.0000  -0.0000

          k = 0.3712 0.3712 0.0000 ( 23590 PWs)   bands (ev):

   -62.6431 -62.6363 -62.6258 -62.6248 -62.6139 -62.6099 -62.6041 -62.6037
   -62.6031 -62.6014 -62.6013 -62.6012 -61.8775 -61.3472 -61.3229 -61.3229
   -61.3217 -61.2979 -61.2975 -61.2488 -61.2485 -61.2482 -61.2237 -61.2235
   -61.2234 -59.9196 -59.9196 -59.9196 -59.9195 -31.4870 -31.4868 -31.4825
   -31.4817 -31.4755 -31.4732 -31.4702 -31.4606 -31.4475 -31.4439 -31.4196
   -31.4140 -31.4069 -31.3971 -31.3911 -31.3904 -31.3799 -31.3530 -31.3449
   -31.3422 -31.3399 -31.3326 -31.3281 -31.2907 -31.2731 -31.2576 -31.2567
   -31.2540 -31.2313 -31.1990 -31.1985 -31.1945 -31.1868 -31.1727 -31.1686
   -31.1674 -30.6054 -30.6051 -30.6050 -30.4499 -30.3697 -30.3693 -30.3636
   -30.3088 -30.3054 -30.1176 -30.1103 -30.1055 -30.0975 -30.0910 -30.0865
   -30.0854 -30.0748 -30.0738 -30.0737 -30.0511 -30.0502 -29.9355 -29.9340
   -29.9324 -29.9018 -29.8928 -29.8905 -29.8839 -29.8828 -29.8806 -29.8768
   -29.8724 -29.8696 -29.8670 -29.8658 -29.8628 -29.8127 -29.8126 -29.8123
   -28.7324 -28.7323 -28.7321 -28.7314 -28.7313 -28.7299 -28.7296 -28.7293
   -28.6735 -28.6724 -28.6721 -28.6716  10.2497  10.8136  12.1816  12.2548
    12.2559  12.3024  13.1649  13.1846  13.3319  13.3618  13.3773  13.4592
    13.5460  13.5460  13.6706  13.7164  13.7583  13.7999  13.8321  13.8652
    13.9046  14.0103  14.0919  14.2252  14.2780  14.2948  14.4146  14.5122
    14.5571  14.6364  14.7511  14.7744  14.8043  14.8206  14.8430  14.9156
    14.9381  14.9427  14.9825  15.0397  15.0818  15.0868  15.1453  15.1535
    15.1698  15.1914  15.2091  15.2546  15.2622  15.3350  15.3716  15.3985
    15.4349  15.4785  15.4855  15.5188  15.5624  15.5753  15.6542  15.6745
    15.7244  15.7350  15.7461  15.7858  15.7994  15.8508  15.8602  15.9025
    15.9844  16.0308  16.0465  16.0497  16.1004  16.2002  16.2181  16.2241
    16.2918  16.3196  16.3314  16.3793  16.4589  16.5087  16.5273  16.6354
    16.6898  16.7128  16.7170  16.7587  16.7839  16.8101  16.8204  16.9290
    16.9771  17.1283  17.1306  17.3151  17.3171  17.3853  17.4057  17.4739
    17.4895  17.5535  17.6006  17.6436  17.7330  17.7389  17.7798  17.8158
    17.8206  17.8209  17.8811  17.9477  17.9501  18.0099  18.0393  18.0762
    18.1509  18.2123  18.2838  18.2910  18.3724  18.4102  18.4190  18.4842
    18.5445  18.5693  18.5718  18.6107  18.6710  18.6877  18.7427  18.7896
    18.8530  18.8763  18.8968  18.9108  18.9223  19.0044  19.0136  19.0253
    19.0982  19.1359  19.1927  19.2242  19.2486  19.3039

     occupation numbers 
     1.0000   1.0000   1.0000   1.0000   1.0000   1.0000   1.0000   1.0000
     1.0000   1.0000   1.0000   1.0000   1.0000   1.0000   1.0000   1.0000
     1.0000   1.0000   1.0000   1.0000   1.0000   1.0000   1.0000   1.0000
     1.0000   1.0000   1.0000   1.0000   1.0000   1.0000   1.0000   1.0000
     1.0000   1.0000   1.0000   1.0000   1.0000   1.0000   1.0000   1.0000
     1.0000   1.0000   1.0000   1.0000   1.0000   1.0000   1.0000   1.0000
     1.0000   1.0000   1.0000   1.0000   1.0000   1.0000   1.0000   1.0000
     1.0000   1.0000   1.0000   1.0000   1.0000   1.0000   1.0000   1.0000
     1.0000   1.0000   1.0000   1.0000   1.0000   1.0000   1.0000   1.0000
     1.0000   1.0000   1.0000   1.0000   1.0000   1.0000   1.0000   1.0000
     1.0000   1.0000   1.0000   1.0000   1.0000   1.0000   1.0000   1.0000
     1.0000   1.0000   1.0000   1.0000   1.0000   1.0000   1.0000   1.0000
     1.0000   1.0000   1.0000   1.0000   1.0000   1.0000   1.0000   1.0000
     1.0000   1.0000   1.0000   1.0000   1.0000   1.0000   1.0000   1.0000
     1.0000   1.0000   1.0000   1.0000   1.0000   1.0000   1.0000   1.0000
     1.0000   1.0000   1.0000   1.0000   1.0000   1.0000   1.0000   1.0000
     1.0000   1.0000   1.0000   1.0000   1.0000   1.0000   1.0000   1.0000
     1.0000   1.0000   1.0000   1.0000   1.0000   1.0000   1.0000   1.0000
     1.0000   1.0000   1.0000   1.0000   1.0000   1.0000   1.0000   1.0000
     1.0000   1.0000   1.0000   1.0000   1.0000   1.0000   1.0000   1.0000
     1.0000   1.0000   1.0000   1.0000   1.0000   1.0000   1.0000   1.0000
     1.0000   1.0000   1.0000   1.0000   1.0000   1.0000   1.0000   1.0000
     1.0000   1.0000   1.0000   1.0000   1.0000   1.0000   1.0000   1.0000
     1.0000   1.0000   1.0000   1.0000   1.0000   1.0001   1.0001   1.0001
     1.0002   1.0003   1.0004   1.0007   1.0016   1.0027   1.0032   1.0082
     1.0122   1.0143   1.0147   1.0189   1.0217   1.0246   1.0258   1.0351
     1.0347   0.9865   0.9849   0.7621   0.7587   0.6308   0.5896   0.4489
     0.4169   0.2914   0.2088   0.1433   0.0418   0.0368   0.0075  -0.0111
    -0.0130  -0.0132  -0.0302  -0.0355  -0.0355  -0.0327  -0.0300  -0.0260
    -0.0177  -0.0119  -0.0069  -0.0065  -0.0031  -0.0022  -0.0020  -0.0010
    -0.0005  -0.0004  -0.0004  -0.0002  -0.0001  -0.0001  -0.0000  -0.0000
    -0.0000  -0.0000  -0.0000  -0.0000  -0.0000  -0.0000  -0.0000  -0.0000
    -0.0000  -0.0000  -0.0000  -0.0000  -0.0000  -0.0000

          k = 0.2474 0.1237 0.1237 ( 23627 PWs)   bands (ev):

   -62.6469 -62.6300 -62.6271 -62.6232 -62.6153 -62.6120 -62.6037 -62.6033
   -62.6032 -62.6013 -62.6012 -62.6012 -61.8775 -61.3465 -61.3230 -61.3229
   -61.3224 -61.2978 -61.2976 -61.2488 -61.2486 -61.2485 -61.2234 -61.2234
   -61.2233 -59.9196 -59.9196 -59.9196 -59.9194 -31.4849 -31.4833 -31.4808
   -31.4766 -31.4760 -31.4724 -31.4707 -31.4644 -31.4472 -31.4378 -31.4318
   -31.4075 -31.4040 -31.3998 -31.3929 -31.3817 -31.3716 -31.3650 -31.3517
   -31.3492 -31.3378 -31.3371 -31.3327 -31.2864 -31.2694 -31.2616 -31.2554
   -31.2550 -31.2534 -31.1953 -31.1908 -31.1893 -31.1772 -31.1765 -31.1658
   -31.1658 -30.6052 -30.6051 -30.6050 -30.4469 -30.3704 -30.3703 -30.3674
   -30.3071 -30.3056 -30.1145 -30.1081 -30.1068 -30.1000 -30.0893 -30.0882
   -30.0864 -30.0743 -30.0743 -30.0740 -30.0522 -30.0518 -29.9342 -29.9332
   -29.9328 -29.9032 -29.8879 -29.8873 -29.8832 -29.8819 -29.8812 -29.8732
   -29.8720 -29.8705 -29.8705 -29.8674 -29.8666 -29.8130 -29.8128 -29.8128
   -28.7321 -28.7320 -28.7320 -28.7314 -28.7311 -28.7301 -28.7298 -28.7296
   -28.6731 -28.6724 -28.6724 -28.6716   9.7441  11.8533  11.9026  12.3026
    12.6420  12.6846  12.9342  12.9969  13.1926  13.1968  13.3642  13.4268
    13.4619  13.5577  13.6270  13.6626  13.7130  13.7800  13.8338  13.8462
    13.9601  13.9855  14.1578  14.1850  14.2390  14.2441  14.5011  14.5266
    14.5771  14.5821  14.6514  14.7565  14.8045  14.8212  14.8279  14.8598
    14.8762  14.9214  14.9361  14.9699  15.0003  15.0801  15.1046  15.1207
    15.2303  15.2403  15.2784  15.2795  15.3132  15.3278  15.4029  15.4224
    15.4286  15.4713  15.4830  15.4892  15.5330  15.5596  15.5818  15.6551
    15.6660  15.7242  15.7404  15.7790  15.8148  15.8375  15.8966  15.9341
    15.9734  16.0234  16.0354  16.1044  16.1310  16.1582  16.1773  16.2059
    16.2257  16.3214  16.3294  16.3779  16.4757  16.5317  16.5584  16.5655
    16.6290  16.7100  16.7632  16.7701  16.8836  16.9290  16.9332  17.0277
    17.0732  17.1198  17.2846  17.2867  17.3839  17.4264  17.4487  17.5413
    17.5540  17.5667  17.6402  17.6479  17.6826  17.7197  17.7392  17.7511
    17.7841  17.8036  17.8571  17.8956  17.8962  17.9719  17.9732  18.0486
    18.1507  18.1711  18.2088  18.2227  18.2805  18.3914  18.3936  18.4397
    18.4449  18.5594  18.5794  18.5931  18.6452  18.7099  18.7439  18.7977
    18.8154  18.8231  18.8411  18.8902  18.9099  18.9599  19.0129  19.0396
    19.0945  19.0981  19.1586  19.2062  19.2342  19.2941

     occupation numbers 
     1.0000   1.0000   1.0000   1.0000   1.0000   1.0000   1.0000   1.0000
     1.0000   1.0000   1.0000   1.0000   1.0000   1.0000   1.0000   1.0000
     1.0000   1.0000   1.0000   1.0000   1.0000   1.0000   1.0000   1.0000
     1.0000   1.0000   1.0000   1.0000   1.0000   1.0000   1.0000   1.0000
     1.0000   1.0000   1.0000   1.0000   1.0000   1.0000   1.0000   1.0000
     1.0000   1.0000   1.0000   1.0000   1.0000   1.0000   1.0000   1.0000
     1.0000   1.0000   1.0000   1.0000   1.0000   1.0000   1.0000   1.0000
     1.0000   1.0000   1.0000   1.0000   1.0000   1.0000   1.0000   1.0000
     1.0000   1.0000   1.0000   1.0000   1.0000   1.0000   1.0000   1.0000
     1.0000   1.0000   1.0000   1.0000   1.0000   1.0000   1.0000   1.0000
     1.0000   1.0000   1.0000   1.0000   1.0000   1.0000   1.0000   1.0000
     1.0000   1.0000   1.0000   1.0000   1.0000   1.0000   1.0000   1.0000
     1.0000   1.0000   1.0000   1.0000   1.0000   1.0000   1.0000   1.0000
     1.0000   1.0000   1.0000   1.0000   1.0000   1.0000   1.0000   1.0000
     1.0000   1.0000   1.0000   1.0000   1.0000   1.0000   1.0000   1.0000
     1.0000   1.0000   1.0000   1.0000   1.0000   1.0000   1.0000   1.0000
     1.0000   1.0000   1.0000   1.0000   1.0000   1.0000   1.0000   1.0000
     1.0000   1.0000   1.0000   1.0000   1.0000   1.0000   1.0000   1.0000
     1.0000   1.0000   1.0000   1.0000   1.0000   1.0000   1.0000   1.0000
     1.0000   1.0000   1.0000   1.0000   1.0000   1.0000   1.0000   1.0000
     1.0000   1.0000   1.0000   1.0000   1.0000   1.0000   1.0000   1.0000
     1.0000   1.0000   1.0000   1.0000   1.0000   1.0000   1.0000   1.0000
     1.0000   1.0000   1.0000   1.0000   1.0000   1.0000   1.0000   1.0000
     1.0000   1.0000   1.0000   1.0000   1.0000   1.0000   1.0000   1.0001
     1.0001   1.0003   1.0004   1.0007   1.0019   1.0033   1.0042   1.0045
     1.0078   1.0140   1.0194   1.0201   1.0323   1.0351   1.0352   1.0282
     1.0149   0.9918   0.8125   0.8092   0.6335   0.5472   0.5011   0.3144
     0.2906   0.2672   0.1481   0.1373   0.0931   0.0539   0.0365   0.0271
     0.0049  -0.0055  -0.0251  -0.0323  -0.0324  -0.0350  -0.0350  -0.0290
    -0.0177  -0.0157  -0.0122  -0.0111  -0.0071  -0.0026  -0.0026  -0.0016
    -0.0015  -0.0004  -0.0003  -0.0003  -0.0001  -0.0001  -0.0000  -0.0000
    -0.0000  -0.0000  -0.0000  -0.0000  -0.0000  -0.0000  -0.0000  -0.0000
    -0.0000  -0.0000  -0.0000  -0.0000  -0.0000  -0.0000

          k = 0.3712 0.2474 0.1237 ( 23634 PWs)   bands (ev):

   -62.6442 -62.6343 -62.6285 -62.6220 -62.6150 -62.6099 -62.6040 -62.6035
   -62.6032 -62.6014 -62.6012 -62.6012 -61.8775 -61.3471 -61.3229 -61.3228
   -61.3219 -61.2979 -61.2975 -61.2487 -61.2485 -61.2483 -61.2236 -61.2235
   -61.2234 -59.9196 -59.9196 -59.9196 -59.9194 -31.4866 -31.4851 -31.4813
   -31.4805 -31.4771 -31.4744 -31.4702 -31.4612 -31.4515 -31.4365 -31.4237
   -31.4149 -31.4067 -31.3974 -31.3922 -31.3833 -31.3781 -31.3600 -31.3442
   -31.3431 -31.3389 -31.3356 -31.3270 -31.2951 -31.2648 -31.2571 -31.2567
   -31.2534 -31.2420 -31.1994 -31.1929 -31.1915 -31.1879 -31.1739 -31.1677
   -31.1673 -30.6053 -30.6051 -30.6050 -30.4495 -30.3696 -30.3690 -30.3648
   -30.3081 -30.3057 -30.1166 -30.1104 -30.1068 -30.0970 -30.0900 -30.0872
   -30.0856 -30.0746 -30.0741 -30.0738 -30.0512 -30.0506 -29.9351 -29.9338
   -29.9327 -29.9020 -29.8914 -29.8899 -29.8852 -29.8830 -29.8818 -29.8743
   -29.8717 -29.8696 -29.8679 -29.8658 -29.8640 -29.8128 -29.8126 -29.8124
   -28.7323 -28.7323 -28.7321 -28.7315 -28.7313 -28.7299 -28.7296 -28.7294
   -28.6735 -28.6724 -28.6722 -28.6716  10.0842  11.1890  11.6838  12.1309
    12.5198  12.8199  12.8822  13.2395  13.3065  13.3321  13.3939  13.4684
    13.5332  13.5612  13.6424  13.6789  13.7152  13.7886  13.8284  13.8891
    13.9088  13.9648  14.1524  14.2291  14.2570  14.2850  14.4750  14.5354
    14.5642  14.6304  14.6764  14.7414  14.7920  14.8096  14.8533  14.8932
    14.9162  14.9714  14.9749  15.0320  15.0529  15.0886  15.1176  15.1681
    15.1893  15.2000  15.2449  15.2633  15.2888  15.3344  15.3747  15.4159
    15.4380  15.4509  15.4795  15.5203  15.5436  15.5631  15.6081  15.6510
    15.6964  15.7469  15.7610  15.7811  15.8151  15.8475  15.8729  15.9343
    15.9464  16.0034  16.0464  16.1099  16.1258  16.1643  16.2052  16.2504
    16.2915  16.3112  16.3458  16.3744  16.4333  16.5327  16.5461  16.6264
    16.6616  16.6817  16.7379  16.7723  16.7852  16.8259  16.8480  16.9231
    17.0120  17.1118  17.1913  17.2673  17.3486  17.3966  17.4147  17.4907
    17.5161  17.5578  17.5747  17.6408  17.6616  17.7272  17.7641  17.8152
    17.8356  17.8668  17.9001  17.9333  17.9663  18.0054  18.0236  18.1134
    18.1664  18.2389  18.2454  18.2730  18.3225  18.3918  18.3987  18.4639
    18.5296  18.5416  18.5989  18.6233  18.6567  18.6850  18.7293  18.8096
    18.8433  18.8677  18.8889  18.9118  18.9291  18.9527  19.0186  19.0485
    19.0873  19.1490  19.1803  19.2235  19.2391  19.2741

     occupation numbers 
     1.0000   1.0000   1.0000   1.0000   1.0000   1.0000   1.0000   1.0000
     1.0000   1.0000   1.0000   1.0000   1.0000   1.0000   1.0000   1.0000
     1.0000   1.0000   1.0000   1.0000   1.0000   1.0000   1.0000   1.0000
     1.0000   1.0000   1.0000   1.0000   1.0000   1.0000   1.0000   1.0000
     1.0000   1.0000   1.0000   1.0000   1.0000   1.0000   1.0000   1.0000
     1.0000   1.0000   1.0000   1.0000   1.0000   1.0000   1.0000   1.0000
     1.0000   1.0000   1.0000   1.0000   1.0000   1.0000   1.0000   1.0000
     1.0000   1.0000   1.0000   1.0000   1.0000   1.0000   1.0000   1.0000
     1.0000   1.0000   1.0000   1.0000   1.0000   1.0000   1.0000   1.0000
     1.0000   1.0000   1.0000   1.0000   1.0000   1.0000   1.0000   1.0000
     1.0000   1.0000   1.0000   1.0000   1.0000   1.0000   1.0000   1.0000
     1.0000   1.0000   1.0000   1.0000   1.0000   1.0000   1.0000   1.0000
     1.0000   1.0000   1.0000   1.0000   1.0000   1.0000   1.0000   1.0000
     1.0000   1.0000   1.0000   1.0000   1.0000   1.0000   1.0000   1.0000
     1.0000   1.0000   1.0000   1.0000   1.0000   1.0000   1.0000   1.0000
     1.0000   1.0000   1.0000   1.0000   1.0000   1.0000   1.0000   1.0000
     1.0000   1.0000   1.0000   1.0000   1.0000   1.0000   1.0000   1.0000
     1.0000   1.0000   1.0000   1.0000   1.0000   1.0000   1.0000   1.0000
     1.0000   1.0000   1.0000   1.0000   1.0000   1.0000   1.0000   1.0000
     1.0000   1.0000   1.0000   1.0000   1.0000   1.0000   1.0000   1.0000
     1.0000   1.0000   1.0000   1.0000   1.0000   1.0000   1.0000   1.0000
     1.0000   1.0000   1.0000   1.0000   1.0000   1.0000   1.0000   1.0000
     1.0000   1.0000   1.0000   1.0000   1.0000   1.0000   1.0000   1.0000
     1.0000   1.0000   1.0000   1.0000   1.0000   1.0000   1.0001   1.0001
     1.0002   1.0003   1.0004   1.0006   1.0012   1.0033   1.0038   1.0076
     1.0100   1.0115   1.0167   1.0204   1.0218   1.0264   1.0288   1.0349
     1.0310   0.9966   0.9338   0.8389   0.7018   0.6081   0.5714   0.4144
     0.3633   0.2836   0.2529   0.1472   0.1190   0.0470   0.0176  -0.0108
    -0.0187  -0.0274  -0.0329  -0.0352  -0.0352  -0.0330  -0.0315  -0.0218
    -0.0161  -0.0098  -0.0093  -0.0075  -0.0050  -0.0026  -0.0024  -0.0012
    -0.0006  -0.0005  -0.0003  -0.0002  -0.0001  -0.0001  -0.0000  -0.0000
    -0.0000  -0.0000  -0.0000  -0.0000  -0.0000  -0.0000  -0.0000  -0.0000
    -0.0000  -0.0000  -0.0000  -0.0000  -0.0000  -0.0000

[...]
     1.0000   1.0000   1.0000   1.0000   1.0000   1.0000   1.0000   1.0000
     1.0000   1.0000   1.0000   1.0000   1.0000   1.0000   1.0000   1.0000
     1.0000   1.0000   1.0000   1.0000   1.0000   1.0000   1.0000   1.0000
     1.0000   1.0000   1.0000   1.0000   1.0000   1.0000   1.0000   1.0000
     1.0000   1.0000   1.0000   1.0000   1.0000   1.0000   1.0000   1.0000
     1.0000   1.0000   1.0000   1.0000   1.0000   1.0000   1.0000   1.0000
     1.0000   1.0000   1.0000   1.0000   1.0000   1.0000   1.0000   1.0000
     1.0000   1.0000   1.0000   1.0000   1.0000   1.0000   1.0000   1.0001
     1.0002   1.0003   1.0003   1.0007   1.0007   1.0009   1.0010   1.0021
     1.0030   1.0115   1.0129   1.0150   1.0150   1.0325   1.0334   1.0334
     1.0345   1.0349   1.0231   1.0231   0.9829   0.9701   0.9701   0.9179
     0.8094   0.6731   0.5931   0.5931   0.5531   0.3215   0.3052   0.3052
     0.1323   0.0298   0.0210  -0.0310  -0.0310  -0.0313  -0.0278  -0.0271
    -0.0226  -0.0226  -0.0143  -0.0143  -0.0105  -0.0087  -0.0051  -0.0051
    -0.0043  -0.0020  -0.0015  -0.0015  -0.0015  -0.0008  -0.0002  -0.0002
    -0.0002  -0.0001  -0.0000  -0.0000  -0.0000  -0.0000  -0.0000  -0.0000
    -0.0000  -0.0000  -0.0000  -0.0000  -0.0000  -0.0000

          k =-0.0000-0.1237 0.6186 ( 23587 PWs)   bands (ev):

   -63.4826 -63.4826 -63.4825 -63.4825 -62.2833 -62.2596 -62.2591 -62.2591
   -62.2354 -62.2351 -62.1874 -62.1873 -62.1872 -62.1626 -62.1625 -62.1625
   -61.7638 -60.9494 -60.9458 -60.9343 -60.9339 -60.9303 -60.9146 -60.9145
   -60.9127 -60.9126 -60.9105 -60.9104 -60.9104 -32.2114 -32.2112 -32.2112
   -32.2094 -32.2091 -32.2091 -32.2083 -32.2081 -32.1860 -32.1858 -32.1856
   -32.1831 -31.2573 -31.1884 -31.1863 -31.1861 -31.1326 -31.1317 -31.1209
   -31.1057 -31.1055 -31.1026 -31.0644 -31.0643 -31.0630 -31.0378 -31.0360
   -31.0349 -31.0339 -31.0317 -30.9033 -30.9030 -30.9007 -30.9002 -30.8983
   -30.8976 -30.8880 -30.8852 -30.8846 -30.8742 -30.8713 -30.8664 -30.7202
   -30.7201 -30.7192 -30.6378 -30.6376 -30.6376 -30.4732 -30.4732 -30.4731
   -29.8604 -29.8029 -29.7932 -29.7920 -29.7570 -29.7464 -29.7445 -29.7416
   -29.7277 -29.7259 -29.7158 -29.7146 -29.7079 -29.7035 -29.6986 -29.6876
   -29.6772 -29.6731 -29.6684 -29.6669 -29.6610 -29.6596 -29.6412 -29.6399
   -29.6328 -29.6215 -29.6008 -29.5908 -29.5897 -29.5875 -29.5839 -29.5793
   -29.5779 -29.5562 -29.5509 -29.5496  10.5281  11.0631  11.4897  11.6396
    12.0169  12.4008  12.9066  13.0418  13.2613  13.3387  13.4039  13.4707
    13.5055  13.5253  13.5824  13.6169  13.6478  13.6684  13.6937  13.7657
    13.8236  13.9681  14.0860  14.2479  14.2775  14.3045  14.3762  14.3797
    14.4011  14.4440  14.4706  14.5072  14.5292  14.6181  14.6556  14.7127
    14.7290  14.7682  14.7896  14.8057  14.8733  14.9554  14.9858  15.0173
    15.0605  15.0793  15.1312  15.1643  15.1901  15.2294  15.2408  15.2891
    15.3245  15.3653  15.4267  15.4429  15.4468  15.4700  15.4905  15.5464
    15.5797  15.6334  15.6429  15.6938  15.7200  15.7367  15.8115  15.8859
    15.9004  15.9621  15.9821  16.0286  16.0839  16.1110  16.1344  16.1626
    16.1906  16.3094  16.3266  16.3821  16.4154  16.4517  16.4786  16.4967
    16.5327  16.6288  16.6677  16.7136  16.7456  16.8235  16.8636  16.8746
    16.9549  16.9659  17.0171  17.0493  17.0805  17.1040  17.1642  17.2090
    17.3120  17.3201  17.3685  17.4264  17.4778  17.4877  17.5151  17.5623
    17.6507  17.7647  17.8184  17.8344  17.8793  17.9188  17.9704  18.0011
    18.0476  18.1053  18.1644  18.1832  18.2198  18.2430  18.2556  18.3118
    18.3236  18.3693  18.4399  18.4728  18.4838  18.5183  18.6326  18.6360
    18.6625  18.6912  18.7436  18.7580  18.8043  18.8333  18.8458  18.8780
    18.9097  18.9323  18.9479  18.9683  18.9851  19.0771

     occupation numbers 
     1.0000   1.0000   1.0000   1.0000   1.0000   1.0000   1.0000   1.0000
     1.0000   1.0000   1.0000   1.0000   1.0000   1.0000   1.0000   1.0000
     1.0000   1.0000   1.0000   1.0000   1.0000   1.0000   1.0000   1.0000
     1.0000   1.0000   1.0000   1.0000   1.0000   1.0000   1.0000   1.0000
     1.0000   1.0000   1.0000   1.0000   1.0000   1.0000   1.0000   1.0000
     1.0000   1.0000   1.0000   1.0000   1.0000   1.0000   1.0000   1.0000
     1.0000   1.0000   1.0000   1.0000   1.0000   1.0000   1.0000   1.0000
     1.0000   1.0000   1.0000   1.0000   1.0000   1.0000   1.0000   1.0000
     1.0000   1.0000   1.0000   1.0000   1.0000   1.0000   1.0000   1.0000
     1.0000   1.0000   1.0000   1.0000   1.0000   1.0000   1.0000   1.0000
     1.0000   1.0000   1.0000   1.0000   1.0000   1.0000   1.0000   1.0000
     1.0000   1.0000   1.0000   1.0000   1.0000   1.0000   1.0000   1.0000
     1.0000   1.0000   1.0000   1.0000   1.0000   1.0000   1.0000   1.0000
     1.0000   1.0000   1.0000   1.0000   1.0000   1.0000   1.0000   1.0000
     1.0000   1.0000   1.0000   1.0000   1.0000   1.0000   1.0000   1.0000
     1.0000   1.0000   1.0000   1.0000   1.0000   1.0000   1.0000   1.0000
     1.0000   1.0000   1.0000   1.0000   1.0000   1.0000   1.0000   1.0000
     1.0000   1.0000   1.0000   1.0000   1.0000   1.0000   1.0000   1.0000
     1.0000   1.0000   1.0000   1.0000   1.0000   1.0000   1.0000   1.0000
     1.0000   1.0000   1.0000   1.0000   1.0000   1.0000   1.0000   1.0000
     1.0000   1.0000   1.0000   1.0000   1.0000   1.0000   1.0000   1.0000
     1.0000   1.0000   1.0000   1.0000   1.0000   1.0000   1.0000   1.0000
     1.0000   1.0000   1.0000   1.0000   1.0000   1.0000   1.0000   1.0000
     1.0000   1.0000   1.0000   1.0000   1.0000   1.0000   1.0000   1.0000
     1.0001   1.0003   1.0004   1.0007   1.0010   1.0015   1.0020   1.0024
     1.0033   1.0077   1.0104   1.0143   1.0175   1.0262   1.0304   1.0315
     1.0354   1.0352   1.0302   1.0229   1.0120   1.0009   0.9593   0.9148
     0.7675   0.7534   0.6637   0.5473   0.4409   0.4205   0.3655   0.2753
     0.1334   0.0172  -0.0122  -0.0183  -0.0298  -0.0345  -0.0351  -0.0334
    -0.0291  -0.0227  -0.0163  -0.0145  -0.0113  -0.0095  -0.0086  -0.0054
    -0.0049  -0.0032  -0.0016  -0.0011  -0.0010  -0.0007  -0.0002  -0.0002
    -0.0001  -0.0001  -0.0000  -0.0000  -0.0000  -0.0000  -0.0000  -0.0000
    -0.0000  -0.0000  -0.0000  -0.0000  -0.0000  -0.0000

          k =-0.7423-0.1237-0.1237 ( 23587 PWs)   bands (ev):

   -63.4826 -63.4826 -63.4826 -63.4825 -62.2832 -62.2593 -62.2593 -62.2590
   -62.2354 -62.2354 -62.1874 -62.1873 -62.1873 -62.1625 -62.1625 -62.1624
   -61.7638 -60.9474 -60.9474 -60.9352 -60.9322 -60.9322 -60.9147 -60.9137
   -60.9127 -60.9127 -60.9105 -60.9105 -60.9104 -32.2114 -32.2114 -32.2114
   -32.2092 -32.2092 -32.2092 -32.2082 -32.2082 -32.1859 -32.1859 -32.1859
   -32.1829 -31.2568 -31.1876 -31.1876 -31.1860 -31.1324 -31.1324 -31.1220
   -31.1054 -31.1038 -31.1038 -31.0640 -31.0632 -31.0632 -31.0369 -31.0369
   -31.0353 -31.0332 -31.0332 -30.9026 -30.9013 -30.9013 -30.8993 -30.8993
   -30.8980 -30.8870 -30.8863 -30.8863 -30.8714 -30.8714 -30.8677 -30.7203
   -30.7196 -30.7196 -30.6378 -30.6377 -30.6377 -30.4732 -30.4732 -30.4732
   -29.8641 -29.7996 -29.7996 -29.7927 -29.7579 -29.7458 -29.7458 -29.7416
   -29.7270 -29.7270 -29.7108 -29.7108 -29.7067 -29.6968 -29.6917 -29.6917
   -29.6787 -29.6723 -29.6723 -29.6647 -29.6647 -29.6556 -29.6403 -29.6403
   -29.6323 -29.6148 -29.6148 -29.5903 -29.5889 -29.5889 -29.5845 -29.5796
   -29.5796 -29.5523 -29.5523 -29.5512  10.9775  10.9933  10.9933  11.9340
    11.9658  11.9658  12.9076  13.1507  13.3639  13.3700  13.3700  13.4607
    13.5490  13.5490  13.6117  13.6194  13.6505  13.6505  13.7066  13.7066
    13.7857  14.0688  14.0688  14.2933  14.3068  14.3068  14.3660  14.3772
    14.3772  14.4433  14.4433  14.4945  14.5837  14.5837  14.6895  14.6895
    14.7160  14.7792  14.7792  14.8204  14.8204  14.9760  14.9760  14.9786
    15.0680  15.1149  15.1149  15.1286  15.2054  15.2054  15.2776  15.2788
    15.2788  15.3842  15.3842  15.4213  15.4697  15.4697  15.5439  15.5439
    15.5740  15.6721  15.6721  15.7222  15.7222  15.7651  15.8404  15.8984
    15.9186  15.9707  15.9707  16.0732  16.0732  16.1012  16.1132  16.1671
    16.1671  16.3296  16.3296  16.3655  16.4614  16.4614  16.5097  16.5364
    16.5364  16.6706  16.6706  16.6950  16.7546  16.7984  16.7984  16.8245
    16.9493  17.0082  17.0112  17.0112  17.0352  17.1206  17.1206  17.2658
    17.2658  17.3702  17.3702  17.3861  17.4974  17.4974  17.5117  17.6207
    17.6207  17.7212  17.8065  17.8065  17.9051  17.9051  17.9279  18.0124
    18.0575  18.0575  18.1518  18.1821  18.1821  18.2488  18.2559  18.2559
    18.3044  18.3044  18.4507  18.4547  18.5248  18.5248  18.6576  18.6590
    18.6739  18.6739  18.7569  18.7569  18.8310  18.8420  18.8832  18.8832
    18.9326  18.9326  18.9615  18.9745  18.9745  19.0951

     occupation numbers 
     1.0000   1.0000   1.0000   1.0000   1.0000   1.0000   1.0000   1.0000
     1.0000   1.0000   1.0000   1.0000   1.0000   1.0000   1.0000   1.0000
     1.0000   1.0000   1.0000   1.0000   1.0000   1.0000   1.0000   1.0000
     1.0000   1.0000   1.0000   1.0000   1.0000   1.0000   1.0000   1.0000
     1.0000   1.0000   1.0000   1.0000   1.0000   1.0000   1.0000   1.0000
     1.0000   1.0000   1.0000   1.0000   1.0000   1.0000   1.0000   1.0000
     1.0000   1.0000   1.0000   1.0000   1.0000   1.0000   1.0000   1.0000
     1.0000   1.0000   1.0000   1.0000   1.0000   1.0000   1.0000   1.0000
     1.0000   1.0000   1.0000   1.0000   1.0000   1.0000   1.0000   1.0000
     1.0000   1.0000   1.0000   1.0000   1.0000   1.0000   1.0000   1.0000
     1.0000   1.0000   1.0000   1.0000   1.0000   1.0000   1.0000   1.0000
     1.0000   1.0000   1.0000   1.0000   1.0000   1.0000   1.0000   1.0000
     1.0000   1.0000   1.0000   1.0000   1.0000   1.0000   1.0000   1.0000
     1.0000   1.0000   1.0000   1.0000   1.0000   1.0000   1.0000   1.0000
     1.0000   1.0000   1.0000   1.0000   1.0000   1.0000   1.0000   1.0000
     1.0000   1.0000   1.0000   1.0000   1.0000   1.0000   1.0000   1.0000
     1.0000   1.0000   1.0000   1.0000   1.0000   1.0000   1.0000   1.0000
     1.0000   1.0000   1.0000   1.0000   1.0000   1.0000   1.0000   1.0000
     1.0000   1.0000   1.0000   1.0000   1.0000   1.0000   1.0000   1.0000
     1.0000   1.0000   1.0000   1.0000   1.0000   1.0000   1.0000   1.0000
     1.0000   1.0000   1.0000   1.0000   1.0000   1.0000   1.0000   1.0000
     1.0000   1.0000   1.0000   1.0000   1.0000   1.0000   1.0000   1.0000
     1.0000   1.0000   1.0000   1.0000   1.0000   1.0000   1.0000   1.0000
     1.0000   1.0000   1.0000   1.0000   1.0000   1.0000   1.0000   1.0000
     1.0000   1.0004   1.0004   1.0006   1.0016   1.0016   1.0027   1.0035
     1.0035   1.0106   1.0106   1.0127   1.0185   1.0233   1.0233   1.0263
     1.0355   1.0316   1.0311   1.0311   1.0265   0.9914   0.9914   0.8411
     0.8411   0.6605   0.6605   0.6292   0.4009   0.4009   0.3721   0.1769
     0.1769   0.0524  -0.0069  -0.0069  -0.0334  -0.0334  -0.0350  -0.0325
    -0.0281  -0.0281  -0.0176  -0.0146  -0.0146  -0.0091  -0.0086  -0.0086
    -0.0058  -0.0058  -0.0014  -0.0014  -0.0006  -0.0006  -0.0001  -0.0001
    -0.0001  -0.0001  -0.0000  -0.0000  -0.0000  -0.0000  -0.0000  -0.0000
    -0.0000  -0.0000  -0.0000  -0.0000  -0.0000  -0.0000

          k =-0.0000-0.0000 0.7423 ( 23614 PWs)   bands (ev):

   -63.4826 -63.4826 -63.4826 -63.4825 -62.2832 -62.2593 -62.2591 -62.2591
   -62.2356 -62.2355 -62.1874 -62.1874 -62.1874 -62.1624 -62.1624 -62.1624
   -61.7638 -60.9477 -60.9464 -60.9339 -60.9339 -60.9331 -60.9149 -60.9131
   -60.9127 -60.9127 -60.9104 -60.9104 -60.9104 -32.2115 -32.2114 -32.2114
   -32.2093 -32.2092 -32.2092 -32.2081 -32.2080 -32.1860 -32.1859 -32.1859
   -32.1828 -31.2564 -31.1874 -31.1870 -31.1870 -31.1330 -31.1327 -31.1231
   -31.1044 -31.1044 -31.1037 -31.0629 -31.0629 -31.0625 -31.0370 -31.0356
   -31.0356 -31.0350 -31.0334 -30.9011 -30.9011 -30.9001 -30.8998 -30.8992
   -30.8992 -30.8880 -30.8869 -30.8869 -30.8704 -30.8695 -30.8693 -30.7198
   -30.7198 -30.7196 -30.6379 -30.6378 -30.6378 -30.4733 -30.4733 -30.4732
   -29.8678 -29.7997 -29.7979 -29.7979 -29.7589 -29.7447 -29.7447 -29.7446
   -29.7276 -29.7269 -29.7064 -29.7007 -29.6989 -29.6989 -29.6953 -29.6848
   -29.6791 -29.6791 -29.6750 -29.6607 -29.6585 -29.6585 -29.6390 -29.6341
   -29.6341 -29.6290 -29.6166 -29.5886 -29.5886 -29.5870 -29.5842 -29.5828
   -29.5828 -29.5528 -29.5510 -29.5510  10.9120  11.3492  11.3492  11.4882
    11.5173  11.8930  12.9928  13.3021  13.3588  13.3588  13.3949  13.4879
    13.5566  13.5566  13.6477  13.6477  13.6521  13.6629  13.6630  13.7009
    13.7009  14.1005  14.1509  14.2984  14.2984  14.3407  14.3440  14.3465
    14.3465  14.4477  14.4965  14.4965  14.5473  14.5993  14.6749  14.7055
    14.7420  14.7420  14.7660  14.8030  14.8466  14.9309  14.9309  14.9639
    15.0695  15.0695  15.1113  15.1570  15.1712  15.1712  15.2507  15.2978
    15.2978  15.3422  15.3780  15.4379  15.4429  15.4429  15.5616  15.6109
    15.6615  15.6615  15.6750  15.7782  15.7782  15.7893  15.8847  15.8972
    15.9898  16.0198  16.0198  16.0537  16.0640  16.0858  16.0880  16.0880
    16.1240  16.3606  16.3606  16.3976  16.5212  16.5212  16.5419  16.5439
    16.5456  16.6707  16.6707  16.6832  16.7024  16.7810  16.7873  16.7873
    16.8971  17.0205  17.0270  17.0270  17.0490  17.0490  17.0559  17.2456
    17.2903  17.3916  17.4252  17.4252  17.4880  17.5029  17.5029  17.5656
    17.5754  17.7506  17.8173  17.8173  17.8693  17.8977  17.9708  17.9839
    17.9839  17.9863  18.1500  18.1500  18.1573  18.2246  18.2345  18.2678
    18.2678  18.2880  18.4051  18.5172  18.5280  18.5280  18.6611  18.6749
    18.6749  18.7611  18.7798  18.7798  18.8505  18.8521  18.8714  18.8714
    18.9323  18.9483  18.9606  18.9606  18.9806  19.0742

     occupation numbers 
     1.0000   1.0000   1.0000   1.0000   1.0000   1.0000   1.0000   1.0000
     1.0000   1.0000   1.0000   1.0000   1.0000   1.0000   1.0000   1.0000
     1.0000   1.0000   1.0000   1.0000   1.0000   1.0000   1.0000   1.0000
     1.0000   1.0000   1.0000   1.0000   1.0000   1.0000   1.0000   1.0000
     1.0000   1.0000   1.0000   1.0000   1.0000   1.0000   1.0000   1.0000
     1.0000   1.0000   1.0000   1.0000   1.0000   1.0000   1.0000   1.0000
     1.0000   1.0000   1.0000   1.0000   1.0000   1.0000   1.0000   1.0000
     1.0000   1.0000   1.0000   1.0000   1.0000   1.0000   1.0000   1.0000
     1.0000   1.0000   1.0000   1.0000   1.0000   1.0000   1.0000   1.0000
     1.0000   1.0000   1.0000   1.0000   1.0000   1.0000   1.0000   1.0000
     1.0000   1.0000   1.0000   1.0000   1.0000   1.0000   1.0000   1.0000
     1.0000   1.0000   1.0000   1.0000   1.0000   1.0000   1.0000   1.0000
     1.0000   1.0000   1.0000   1.0000   1.0000   1.0000   1.0000   1.0000
     1.0000   1.0000   1.0000   1.0000   1.0000   1.0000   1.0000   1.0000
     1.0000   1.0000   1.0000   1.0000   1.0000   1.0000   1.0000   1.0000
     1.0000   1.0000   1.0000   1.0000   1.0000   1.0000   1.0000   1.0000
     1.0000   1.0000   1.0000   1.0000   1.0000   1.0000   1.0000   1.0000
     1.0000   1.0000   1.0000   1.0000   1.0000   1.0000   1.0000   1.0000
     1.0000   1.0000   1.0000   1.0000   1.0000   1.0000   1.0000   1.0000
     1.0000   1.0000   1.0000   1.0000   1.0000   1.0000   1.0000   1.0000
     1.0000   1.0000   1.0000   1.0000   1.0000   1.0000   1.0000   1.0000
     1.0000   1.0000   1.0000   1.0000   1.0000   1.0000   1.0000   1.0000
     1.0000   1.0000   1.0000   1.0000   1.0000   1.0000   1.0000   1.0000
     1.0000   1.0000   1.0000   1.0000   1.0000   1.0000   1.0000   1.0000
     1.0000   1.0005   1.0005   1.0008   1.0030   1.0030   1.0036   1.0037
     1.0038   1.0107   1.0107   1.0117   1.0133   1.0214   1.0221   1.0221
     1.0334   1.0296   1.0283   1.0283   1.0230   1.0230   1.0209   0.8695
     0.8035   0.6181   0.5497   0.5497   0.4199   0.3897   0.3897   0.2693
     0.2518   0.0275  -0.0117  -0.0117  -0.0279  -0.0326  -0.0351  -0.0345
    -0.0345  -0.0343  -0.0178  -0.0178  -0.0171  -0.0109  -0.0101  -0.0079
    -0.0079  -0.0067  -0.0023  -0.0007  -0.0006  -0.0006  -0.0001  -0.0001
    -0.0001  -0.0000  -0.0000  -0.0000  -0.0000  -0.0000  -0.0000  -0.0000
    -0.0000  -0.0000  -0.0000  -0.0000  -0.0000  -0.0000

     the Fermi energy is    17.4492 ev

!    total energy              =   -6201.31048616 Ry
     Harris-Foulkes estimate   =   -6201.31048628 Ry
     estimated scf accuracy    <       0.00000024 Ry

     The total energy is the sum of the following terms:

     one-electron contribution =   -2626.11275018 Ry
     hartree contribution      =    1550.92240147 Ry
     xc contribution           =    -807.40683151 Ry
     ewald contribution        =   -4318.71624771 Ry
     smearing contrib. (-TS)   =       0.00294177 Ry

     total magnetization       =    -4.62 Bohr mag/cell
     absolute magnetization    =    41.75 Bohr mag/cell

     convergence has been achieved in  52 iterations

     Writing output data file mn-7.save/

     init_run     :    342.93s CPU    344.59s WALL (       1 calls)
     electrons    :  56815.71s CPU  57105.86s WALL (       1 calls)

     Called by init_run:
     wfcinit      :    336.42s CPU    337.88s WALL (       1 calls)
     wfcinit:atom :      0.37s CPU      0.38s WALL (      40 calls)
     wfcinit:wfcr :    333.38s CPU    334.84s WALL (      40 calls)
     potinit      :      1.01s CPU      1.06s WALL (       1 calls)
     hinit0       :      0.64s CPU      0.65s WALL (       1 calls)

     Called by electrons:
     c_bands      :  52160.02s CPU  52411.99s WALL (      52 calls)
     sum_band     :   4322.64s CPU   4351.23s WALL (      52 calls)
     v_of_rho     :     44.59s CPU     46.24s WALL (      53 calls)
     v_h          :      1.75s CPU      1.79s WALL (      53 calls)
     v_xc         :     42.84s CPU     44.45s WALL (      53 calls)
     newd         :    280.80s CPU    288.59s WALL (      53 calls)
     mix_rho      :      7.69s CPU      7.83s WALL (      52 calls)

     Called by c_bands:
     init_us_2    :     64.98s CPU     65.15s WALL (    4200 calls)
     cegterg      :  51800.83s CPU  52050.86s WALL (    2080 calls)

     Called by sum_band:
     sum_band:bec :      9.14s CPU      9.18s WALL (    2080 calls)
     addusdens    :    346.17s CPU    354.08s WALL (      52 calls)

     Called by *egterg:
     h_psi        :  17657.78s CPU  17776.11s WALL (    8156 calls)
     s_psi        :   7222.06s CPU   7225.51s WALL (    8156 calls)
     g_psi        :     20.04s CPU     20.08s WALL (    6036 calls)
     cdiaghg      :   4225.01s CPU   4230.69s WALL (    8116 calls)
     cegterg:over :   8889.91s CPU   8926.60s WALL (    6036 calls)
     cegterg:upda :   5826.58s CPU   5852.46s WALL (    6036 calls)
     cegterg:last :   4170.37s CPU   4171.21s WALL (    2080 calls)

     Called by h_psi:
     h_psi:pot    :  17634.02s CPU  17729.03s WALL (    8156 calls)
     h_psi:calbec :   7228.92s CPU   7233.89s WALL (    8156 calls)
     vloc_psi     :   3179.43s CPU   3267.94s WALL (    8156 calls)
     add_vuspsi   :   7225.56s CPU   7227.17s WALL (    8156 calls)

     General routines
     calbec       :  10391.34s CPU  10398.47s WALL (   10236 calls)
     fft          :     32.21s CPU     33.49s WALL (    1319 calls)
     ffts         :      0.71s CPU      0.74s WALL (     210 calls)
     fftw         :   3516.42s CPU   3612.54s WALL ( 3037084 calls)
     interpolate  :      3.49s CPU      3.60s WALL (     106 calls)

     Parallel routines
     fft_scatt_xy :    380.43s CPU    390.44s WALL ( 3038613 calls)
     fft_scatt_yz :   1528.77s CPU   1574.48s WALL ( 3038613 calls)

     PWSCF        :     15h52m CPU     15h57m WALL


   This run was terminated on:   0: 6:21   4Aug2022            

=------------------------------------------------------------------------------=
   JOB DONE.
=------------------------------------------------------------------------------=
