
     Program PWSCF v.6.4.1 starts on 30Dec2022 at 17:32:53 

     This program is part of the open-source Quantum ESPRESSO suite
     for quantum simulation of materials; please cite
         "P. Giannozzi et al., J. Phys.:Condens. Matter 21 395502 (2009);
         "P. Giannozzi et al., J. Phys.:Condens. Matter 29 465901 (2017);
          URL http://www.quantum-espresso.org", 
     in publications or presentations arising from this work. More details at
     http://www.quantum-espresso.org/quote

     Parallel version (MPI), running on     6 processors

     MPI processes distributed on     1 nodes
     R & G space division:  proc/nbgrp/npool/nimage =       6
     Reading input from distance-3.0.in

     Current dimensions of program PWSCF are:
     Max number of different atomic species (ntypx) = 10
     Max number of k-points (npk) =  40000
     Max angular momentum in pseudopotentials (lmaxx) =  3

     IMPORTANT: XC functional enforced from input :
     Exchange-correlation      = RVV10 ( 1  4 13  4 3 0)
     Any further DFT definition will be discarded
     Please, verify this is what you really want

               file H.pbe-rrkjus.UPF: wavefunction(s)  1S renormalized

     Subspace diagonalization in iterative solution of the eigenvalue problem:
     a serial algorithm will be used


     Parallelization info
     --------------------
     sticks:   dense  smooth     PW     G-vecs:    dense   smooth      PW
     Min        3051    1746    432               270999   117096   14629
     Max        3053    1747    437               271001   117099   14630
     Sum       18313   10477   2611              1626001   702581   87777



     bravais-lattice index     =            4
     lattice parameter (alat)  =      23.2937  a.u.
     unit-cell volume          =    8879.8548 (a.u.)^3
     number of atoms/cell      =           52
     number of atomic types    =            3
     number of electrons       =       216.00
     number of Kohn-Sham states=          130
     kinetic-energy cutoff     =      70.0000  Ry
     charge density cutoff     =     490.0000  Ry
     convergence threshold     =      1.0E-06
     mixing beta               =       0.7000
     number of iterations used =            8  plain     mixing
     Exchange-correlation      = RVV10 ( 1  4 13  4 3 0)

     celldm(1)=  23.293684  celldm(2)=   0.000000  celldm(3)=   0.811261
     celldm(4)=   0.000000  celldm(5)=   0.000000  celldm(6)=   0.000000

     crystal axes: (cart. coord. in units of alat)
               a(1) = (   1.000000   0.000000   0.000000 )  
               a(2) = (  -0.500000   0.866025   0.000000 )  
               a(3) = (   0.000000   0.000000   0.811261 )  

     reciprocal axes: (cart. coord. in units 2 pi/alat)
               b(1) = (  1.000000  0.577350 -0.000000 )  
               b(2) = (  0.000000  1.154701  0.000000 )  
               b(3) = (  0.000000 -0.000000  1.232649 )  


     PseudoPot. # 1 for H  read from file:
     /home/cristian/Escritorio/Proyecto_Grafeno/pseudopotenciales/H.pbe-rrkjus.UPF
     MD5 check sum: 7cc9d459525c9a0585f487a71c3c9563
     Pseudo is Ultrasoft, Zval =  1.0
     Generated by new atomic code, or converted to UPF format
     Using radial grid of 1061 points,  2 beta functions with: 
                l(1) =   0
                l(2) =   0
     Q(r) pseudized with 0 coefficients 


     PseudoPot. # 2 for C  read from file:
     /home/cristian/Escritorio/Proyecto_Grafeno/pseudopotenciales/C.pbe-n-rrkjus_psl.1.0.0.UPF
     MD5 check sum: 1fdd950c42eb37d8afe3dd2f8d12311e
     Pseudo is Ultrasoft + core correction, Zval =  4.0
     Generated using "atomic" code by A. Dal Corso v.6.3MaX
     Using radial grid of 1073 points,  4 beta functions with: 
                l(1) =   0
                l(2) =   0
                l(3) =   1
                l(4) =   1
     Q(r) pseudized with 0 coefficients 


     PseudoPot. # 3 for Ni read from file:
     /home/cristian/Escritorio/Proyecto_Grafeno/pseudopotenciales/Ni.pbe-spn-rrkjus_psl.1.0.0.UPF
     MD5 check sum: 8b3fc9aac6dafe35f580d41bb18c3945
     Pseudo is Ultrasoft + core correction, Zval = 18.0
     Generated using "atomic" code by A. Dal Corso v.6.3
     Using radial grid of 1195 points,  6 beta functions with: 
                l(1) =   0
                l(2) =   0
                l(3) =   1
                l(4) =   1
                l(5) =   2
                l(6) =   2
     Q(r) pseudized with 0 coefficients 


     vdW kernel table read from file rVV10_kernel_table
     MD5 check sum: b8e2538accc0c0b3206b45ba4daaba6c

     atomic species   valence    mass     pseudopotential
        H              1.00     1.00794     H ( 1.00)
        C              4.00    12.01070     C ( 1.00)
        Ni            18.00    58.69340     Ni( 1.00)

     Starting magnetic structure 
     atomic species   magnetization
        H            0.500
        C            0.300
        Ni           0.800

     No symmetry found


                                    s                        frac. trans.

      isym =  1     identity                                     

 cryst.   s( 1) = (     1          0          0      )
                  (     0          1          0      )
                  (     0          0          1      )

 cart.    s( 1) = (  1.0000000  0.0000000  0.0000000 )
                  (  0.0000000  1.0000000  0.0000000 )
                  (  0.0000000  0.0000000  1.0000000 )


     point group C_1 (1)    
     there are  1 classes
     the character table:

       E    
A      1.00

     the symmetry operations in each class and the name of the first element:

     E        1
          identity                                               

   Cartesian axes

     site n.     atom                  positions (alat units)
         1           H   tau(   1) = (   0.1694937   0.4618802   0.2433783  )
         2           H   tau(   2) = (   0.2305063   0.4618802   0.2433783  )
         3           C   tau(   3) = (   0.0000000   0.0000000   0.0000000  )
         4           C   tau(   4) = (   0.0000000   0.1154701   0.0000000  )
         5           C   tau(   5) = (  -0.1000000   0.1732051   0.0000000  )
         6           C   tau(   6) = (  -0.1000000   0.2886751   0.0000000  )
         7           C   tau(   7) = (  -0.2000000   0.3464102   0.0000000  )
         8           C   tau(   8) = (  -0.2000000   0.4618802   0.0000000  )
         9           C   tau(   9) = (  -0.3000000   0.5196152   0.0000000  )
        10           C   tau(  10) = (  -0.3000000   0.6350853   0.0000000  )
        11           C   tau(  11) = (  -0.4000000   0.6928203   0.0000000  )
        12           C   tau(  12) = (  -0.4000000   0.8082904   0.0000000  )
        13           C   tau(  13) = (   0.2000000   0.0000000   0.0000000  )
        14           C   tau(  14) = (   0.2000000   0.1154701   0.0000000  )
        15           C   tau(  15) = (   0.1000000   0.1732051   0.0000000  )
        16           C   tau(  16) = (   0.1000000   0.2886751   0.0000000  )
        17           C   tau(  17) = (   0.0000000   0.3464102   0.0000000  )
        18           C   tau(  18) = (   0.0000000   0.4618802   0.0000000  )
        19           C   tau(  19) = (  -0.1000000   0.5196152   0.0000000  )
        20           C   tau(  20) = (  -0.1000000   0.6350853   0.0000000  )
        21           C   tau(  21) = (  -0.2000000   0.6928203   0.0000000  )
        22           C   tau(  22) = (  -0.2000000   0.8082904   0.0000000  )
        23           C   tau(  23) = (   0.4000000   0.0000000   0.0000000  )
        24           C   tau(  24) = (   0.4000000   0.1154701   0.0000000  )
        25           C   tau(  25) = (   0.3000000   0.1732051   0.0000000  )
        26           C   tau(  26) = (   0.3000000   0.2886751   0.0000000  )
        27           C   tau(  27) = (   0.2000000   0.3464102   0.0000000  )
        28           Ni  tau(  28) = (   0.2000000   0.4618802   0.0000000  )
        29           C   tau(  29) = (   0.1000000   0.5196152   0.0000000  )
        30           C   tau(  30) = (   0.1000000   0.6350853   0.0000000  )
        31           C   tau(  31) = (   0.0000000   0.6928203   0.0000000  )
        32           C   tau(  32) = (   0.0000000   0.8082904   0.0000000  )
        33           C   tau(  33) = (   0.6000000   0.0000000   0.0000000  )
        34           C   tau(  34) = (   0.6000000   0.1154701   0.0000000  )
        35           C   tau(  35) = (   0.5000000   0.1732051   0.0000000  )
        36           C   tau(  36) = (   0.5000000   0.2886751   0.0000000  )
        37           C   tau(  37) = (   0.4000000   0.3464102   0.0000000  )
        38           C   tau(  38) = (   0.4000000   0.4618802   0.0000000  )
        39           C   tau(  39) = (   0.3000000   0.5196152   0.0000000  )
        40           C   tau(  40) = (   0.3000000   0.6350853   0.0000000  )
        41           C   tau(  41) = (   0.2000000   0.6928203   0.0000000  )
        42           C   tau(  42) = (   0.2000000   0.8082904   0.0000000  )
        43           C   tau(  43) = (   0.8000000   0.0000000   0.0000000  )
        44           C   tau(  44) = (   0.8000000   0.1154701   0.0000000  )
        45           C   tau(  45) = (   0.7000000   0.1732051   0.0000000  )
        46           C   tau(  46) = (   0.7000000   0.2886751   0.0000000  )
        47           C   tau(  47) = (   0.6000000   0.3464102   0.0000000  )
        48           C   tau(  48) = (   0.6000000   0.4618802   0.0000000  )
        49           C   tau(  49) = (   0.5000000   0.5196152   0.0000000  )
        50           C   tau(  50) = (   0.5000000   0.6350853   0.0000000  )
        51           C   tau(  51) = (   0.4000000   0.6928203   0.0000000  )
        52           C   tau(  52) = (   0.4000000   0.8082904   0.0000000  )

   Crystallographic axes

     site n.     atom                  positions (cryst. coord.)
         1           H   tau(   1) = (  0.4361603  0.5333333  0.3000000  )
         2           H   tau(   2) = (  0.4971730  0.5333333  0.3000000  )
         3           C   tau(   3) = (  0.0000000  0.0000000  0.0000000  )
         4           C   tau(   4) = (  0.0666667  0.1333333  0.0000000  )
         5           C   tau(   5) = (  0.0000000  0.2000000  0.0000000  )
         6           C   tau(   6) = (  0.0666667  0.3333333  0.0000000  )
         7           C   tau(   7) = (  0.0000000  0.4000000  0.0000000  )
         8           C   tau(   8) = (  0.0666667  0.5333333  0.0000000  )
         9           C   tau(   9) = (  0.0000000  0.6000000  0.0000000  )
        10           C   tau(  10) = (  0.0666667  0.7333333  0.0000000  )
        11           C   tau(  11) = (  0.0000000  0.8000000  0.0000000  )
        12           C   tau(  12) = (  0.0666667  0.9333333  0.0000000  )
        13           C   tau(  13) = (  0.2000000  0.0000000  0.0000000  )
        14           C   tau(  14) = (  0.2666667  0.1333333  0.0000000  )
        15           C   tau(  15) = (  0.2000000  0.2000000  0.0000000  )
        16           C   tau(  16) = (  0.2666667  0.3333333  0.0000000  )
        17           C   tau(  17) = (  0.2000000  0.4000000  0.0000000  )
        18           C   tau(  18) = (  0.2666667  0.5333333  0.0000000  )
        19           C   tau(  19) = (  0.2000000  0.6000000  0.0000000  )
        20           C   tau(  20) = (  0.2666667  0.7333333  0.0000000  )
        21           C   tau(  21) = (  0.2000000  0.8000000  0.0000000  )
        22           C   tau(  22) = (  0.2666667  0.9333333  0.0000000  )
        23           C   tau(  23) = (  0.4000000  0.0000000  0.0000000  )
        24           C   tau(  24) = (  0.4666667  0.1333333  0.0000000  )
        25           C   tau(  25) = (  0.4000000  0.2000000  0.0000000  )
        26           C   tau(  26) = (  0.4666667  0.3333333  0.0000000  )
        27           C   tau(  27) = (  0.4000000  0.4000000  0.0000000  )
        28           Ni  tau(  28) = (  0.4666667  0.5333333  0.0000000  )
        29           C   tau(  29) = (  0.4000000  0.6000000  0.0000000  )
        30           C   tau(  30) = (  0.4666667  0.7333333  0.0000000  )
        31           C   tau(  31) = (  0.4000000  0.8000000  0.0000000  )
        32           C   tau(  32) = (  0.4666667  0.9333333  0.0000000  )
        33           C   tau(  33) = (  0.6000000  0.0000000  0.0000000  )
        34           C   tau(  34) = (  0.6666667  0.1333333  0.0000000  )
        35           C   tau(  35) = (  0.6000000  0.2000000  0.0000000  )
        36           C   tau(  36) = (  0.6666667  0.3333333  0.0000000  )
        37           C   tau(  37) = (  0.6000000  0.4000000  0.0000000  )
        38           C   tau(  38) = (  0.6666667  0.5333333  0.0000000  )
        39           C   tau(  39) = (  0.6000000  0.6000000  0.0000000  )
        40           C   tau(  40) = (  0.6666667  0.7333333  0.0000000  )
        41           C   tau(  41) = (  0.6000000  0.8000000  0.0000000  )
        42           C   tau(  42) = (  0.6666667  0.9333333  0.0000000  )
        43           C   tau(  43) = (  0.8000000  0.0000000  0.0000000  )
        44           C   tau(  44) = (  0.8666667  0.1333333  0.0000000  )
        45           C   tau(  45) = (  0.8000000  0.2000000  0.0000000  )
        46           C   tau(  46) = (  0.8666667  0.3333333  0.0000000  )
        47           C   tau(  47) = (  0.8000000  0.4000000  0.0000000  )
        48           C   tau(  48) = (  0.8666667  0.5333333  0.0000000  )
        49           C   tau(  49) = (  0.8000000  0.6000000  0.0000000  )
        50           C   tau(  50) = (  0.8666667  0.7333333  0.0000000  )
        51           C   tau(  51) = (  0.8000000  0.8000000  0.0000000  )
        52           C   tau(  52) = (  0.8666667  0.9333333  0.0000000  )

     number of k points=     1  Marzari-Vanderbilt smearing, width (Ry)=  0.0010
                       cart. coord. in units 2pi/alat
        k(    1) = (   0.0000000   0.0000000   0.0000000), wk =   1.0000000

                       cryst. coord.
        k(    1) = (   0.0000000   0.0000000   0.0000000), wk =   1.0000000

     Dense  grid:  1626001 G-vectors     FFT dimensions: ( 180, 180, 135)

     Smooth grid:   702581 G-vectors     FFT dimensions: ( 125, 125, 108)

     Dynamical RAM for                 wfc:      29.03 MB

     Dynamical RAM for     wfc (w. buffer):      87.10 MB

     Dynamical RAM for           str. fact:      12.41 MB

     Dynamical RAM for           local pot:       0.00 MB

     Dynamical RAM for          nlocal pot:      92.46 MB

     Dynamical RAM for                qrad:      19.73 MB

     Dynamical RAM for          rho,v,vnew:      58.92 MB

     Dynamical RAM for               rhoin:      19.64 MB

     Dynamical RAM for            rho*nmix:     132.32 MB

     Dynamical RAM for           G-vectors:      16.40 MB

     Dynamical RAM for          h,s,v(r/c):      12.38 MB

     Dynamical RAM for          <psi|beta>:       0.82 MB

     Dynamical RAM for                 psi:     116.14 MB

     Dynamical RAM for                hpsi:     116.14 MB

     Dynamical RAM for                spsi:     116.14 MB

     Dynamical RAM for      wfcinit/wfcrot:      93.90 MB

     Dynamical RAM for           addusdens:     975.89 MB

     Estimated static dynamical RAM per process >     489.64 MB

     Estimated max dynamical RAM per process >       1.43 GB

     Estimated total dynamical RAM >       8.59 GB
     Generating pointlists ...
     new r_m :   0.0252 (alat units)  0.5862 (a.u.) for type    1
     new r_m :   0.0476 (alat units)  1.1095 (a.u.) for type    2
     new r_m :   0.0476 (alat units)  1.1095 (a.u.) for type    3

     Check: negative core charge=   -0.000002

     Initial potential from superposition of free atoms

     starting charge  215.80530, renormalised to  216.00000

     negative rho (up, down):  1.376E-04 1.484E-02


---------------------------------------------------------------------------------
Carrying out rVV10 run using the following parameters:
Nqs =      20    Nr_points =    1024   r_max =   100.000
b_value =  6.30000    beta =  0.00901
     q_mesh =  0.00010000  0.00030000  0.00058939  0.00100810
               0.00161396  0.00249058  0.00375900  0.00559430
               0.00824984  0.01209221  0.01765183  0.02569619
               0.03733578  0.05417739  0.07854596  0.11380545
               0.16482331  0.23864234  0.34545298  0.50000000

Gradients computed in Reciprocal space

---------------------------------------------------------------------------------


     Starting wfcs are  208 randomized atomic wfcs

     total cpu time spent up to now is       76.9 secs

     Self-consistent Calculation

     iteration #  1     ecut=    70.00 Ry     beta= 0.70
     Davidson diagonalization with overlap
     ethr =  1.00E-02,  avg # of iterations =  6.5

     negative rho (up, down):  2.618E-04 1.300E-02

     total cpu time spent up to now is      208.6 secs

     total energy              =    -946.84343844 Ry
     Harris-Foulkes estimate   =    -949.69218336 Ry
     estimated scf accuracy    <      13.97846338 Ry

     total magnetization       =     6.00 Bohr mag/cell
     absolute magnetization    =     6.71 Bohr mag/cell

     iteration #  2     ecut=    70.00 Ry     beta= 0.70
     Davidson diagonalization with overlap
     ethr =  6.47E-03,  avg # of iterations =  3.5

     negative rho (up, down):  4.545E-03 2.237E-01

     total cpu time spent up to now is      323.2 secs

     total energy              =    -947.86489833 Ry
     Harris-Foulkes estimate   =    -956.80291239 Ry
     estimated scf accuracy    <      32.85401886 Ry

     total magnetization       =     4.00 Bohr mag/cell
     absolute magnetization    =     6.72 Bohr mag/cell

     iteration #  3     ecut=    70.00 Ry     beta= 0.70
     Davidson diagonalization with overlap
     ethr =  6.47E-03,  avg # of iterations =  4.5

     negative rho (up, down):  1.087E-01 5.198E-01

     total cpu time spent up to now is      439.1 secs

     total energy              =    -953.96607883 Ry
     Harris-Foulkes estimate   =    -959.90970132 Ry
     estimated scf accuracy    <     456.91855034 Ry

     total magnetization       =     2.00 Bohr mag/cell
     absolute magnetization    =    31.83 Bohr mag/cell

     iteration #  4     ecut=    70.00 Ry     beta= 0.70
     Davidson diagonalization with overlap
     ethr =  6.47E-03,  avg # of iterations =  3.0

     negative rho (up, down):  1.011E-01 5.073E-01

     total cpu time spent up to now is      537.9 secs

     total energy              =    -944.56381065 Ry
     Harris-Foulkes estimate   =    -955.10709653 Ry
     estimated scf accuracy    <     186.87132187 Ry

     total magnetization       =     2.00 Bohr mag/cell
     absolute magnetization    =    21.15 Bohr mag/cell

     iteration #  5     ecut=    70.00 Ry     beta= 0.70
     Davidson diagonalization with overlap
     ethr =  6.47E-03,  avg # of iterations =  3.5

     negative rho (up, down):  7.170E-02 3.295E-01

     total cpu time spent up to now is      661.5 secs

     total energy              =    -954.84142957 Ry
     Harris-Foulkes estimate   =    -953.22312476 Ry
     estimated scf accuracy    <      96.55541403 Ry

     total magnetization       =     2.00 Bohr mag/cell
     absolute magnetization    =    16.57 Bohr mag/cell

     iteration #  6     ecut=    70.00 Ry     beta= 0.70
     Davidson diagonalization with overlap
     ethr =  6.47E-03,  avg # of iterations =  2.5

     negative rho (up, down):  4.054E-02 4.752E-01

     total cpu time spent up to now is      756.9 secs

     total energy              =    -947.94034361 Ry
     Harris-Foulkes estimate   =    -955.96577594 Ry
     estimated scf accuracy    <     261.44231982 Ry

     total magnetization       =     2.00 Bohr mag/cell
     absolute magnetization    =    25.98 Bohr mag/cell

     iteration #  7     ecut=    70.00 Ry     beta= 0.70
     Davidson diagonalization with overlap
     ethr =  6.47E-03,  avg # of iterations =  2.0

     negative rho (up, down):  3.775E-02 3.883E-01

     total cpu time spent up to now is      860.9 secs

     total energy              =    -952.52945744 Ry
     Harris-Foulkes estimate   =    -951.60030964 Ry
     estimated scf accuracy    <      12.51330054 Ry

     total magnetization       =     2.00 Bohr mag/cell
     absolute magnetization    =     5.99 Bohr mag/cell

     iteration #  8     ecut=    70.00 Ry     beta= 0.70
     Davidson diagonalization with overlap
     ethr =  5.79E-03,  avg # of iterations =  3.0

     negative rho (up, down):  7.823E-02 4.730E-01

     total cpu time spent up to now is      966.1 secs

     total energy              =    -945.69186652 Ry
     Harris-Foulkes estimate   =    -957.49241854 Ry
     estimated scf accuracy    <     360.04316812 Ry

     total magnetization       =     2.00 Bohr mag/cell
     absolute magnetization    =    29.22 Bohr mag/cell

     iteration #  9     ecut=    70.00 Ry     beta= 0.70
     Davidson diagonalization with overlap
     ethr =  5.79E-03,  avg # of iterations =  2.0

     negative rho (up, down):  5.868E-02 3.366E-01

     total cpu time spent up to now is     1070.5 secs

     total energy              =    -951.66493610 Ry
     Harris-Foulkes estimate   =    -951.59941450 Ry
     estimated scf accuracy    <       6.11150253 Ry

     total magnetization       =    -0.00 Bohr mag/cell
     absolute magnetization    =     3.39 Bohr mag/cell

     iteration # 10     ecut=    70.00 Ry     beta= 0.70
     Davidson diagonalization with overlap
     ethr =  2.83E-03,  avg # of iterations =  3.0

     negative rho (up, down):  3.056E-02 2.412E-01

     total cpu time spent up to now is     1164.5 secs

     total energy              =    -951.75942347 Ry
     Harris-Foulkes estimate   =    -951.90320624 Ry
     estimated scf accuracy    <       3.27316066 Ry

     total magnetization       =     0.00 Bohr mag/cell
     absolute magnetization    =     1.54 Bohr mag/cell

     iteration # 11     ecut=    70.00 Ry     beta= 0.70
     Davidson diagonalization with overlap
     ethr =  1.52E-03,  avg # of iterations =  2.5

     negative rho (up, down):  1.069E-02 3.065E-01

     total cpu time spent up to now is     1256.9 secs

     total energy              =    -951.85012634 Ry
     Harris-Foulkes estimate   =    -951.88696713 Ry
     estimated scf accuracy    <       1.33551090 Ry

     total magnetization       =    -0.00 Bohr mag/cell
     absolute magnetization    =     1.88 Bohr mag/cell

     iteration # 12     ecut=    70.00 Ry     beta= 0.70
     Davidson diagonalization with overlap
     ethr =  6.18E-04,  avg # of iterations =  2.5

     negative rho (up, down):  2.466E-02 2.723E-01

     total cpu time spent up to now is     1350.0 secs

     total energy              =    -951.84103787 Ry
     Harris-Foulkes estimate   =    -951.90982897 Ry
     estimated scf accuracy    <       2.14222737 Ry

     total magnetization       =    -0.00 Bohr mag/cell
     absolute magnetization    =     1.79 Bohr mag/cell

     iteration # 13     ecut=    70.00 Ry     beta= 0.70
     Davidson diagonalization with overlap
     ethr =  6.18E-04,  avg # of iterations =  2.0

     negative rho (up, down):  2.107E-02 1.297E-01

     total cpu time spent up to now is     1443.6 secs

     total energy              =    -951.82014876 Ry
     Harris-Foulkes estimate   =    -951.90572662 Ry
     estimated scf accuracy    <       0.93444090 Ry

     total magnetization       =     0.00 Bohr mag/cell
     absolute magnetization    =     0.62 Bohr mag/cell

     iteration # 14     ecut=    70.00 Ry     beta= 0.70
     Davidson diagonalization with overlap
     ethr =  4.33E-04,  avg # of iterations =  2.0

     negative rho (up, down):  4.569E-03 2.539E-01

     total cpu time spent up to now is     1538.0 secs

     total energy              =    -951.90542713 Ry
     Harris-Foulkes estimate   =    -951.88462628 Ry
     estimated scf accuracy    <       0.50450311 Ry

     total magnetization       =    -0.00 Bohr mag/cell
     absolute magnetization    =     0.99 Bohr mag/cell

     iteration # 15     ecut=    70.00 Ry     beta= 0.70
     Davidson diagonalization with overlap
     ethr =  2.34E-04,  avg # of iterations =  2.5

     negative rho (up, down):  1.098E-02 3.557E-01

     total cpu time spent up to now is     1634.3 secs

     total energy              =    -951.93634800 Ry
     Harris-Foulkes estimate   =    -951.97990458 Ry
     estimated scf accuracy    <       4.36467647 Ry

     total magnetization       =    -0.00 Bohr mag/cell
     absolute magnetization    =     3.09 Bohr mag/cell

     iteration # 16     ecut=    70.00 Ry     beta= 0.70
     Davidson diagonalization with overlap
     ethr =  2.34E-04,  avg # of iterations =  5.5

     negative rho (up, down):  9.429E-03 3.658E-01

     total cpu time spent up to now is     1728.2 secs

     total energy              =    -951.84678477 Ry
     Harris-Foulkes estimate   =    -951.94602792 Ry
     estimated scf accuracy    <       3.81672868 Ry

     total magnetization       =     0.00 Bohr mag/cell
     absolute magnetization    =     2.90 Bohr mag/cell

     iteration # 17     ecut=    70.00 Ry     beta= 0.70
     Davidson diagonalization with overlap
     ethr =  2.34E-04,  avg # of iterations =  2.0

     negative rho (up, down):  9.297E-03 3.367E-01

     total cpu time spent up to now is     1823.4 secs

     total energy              =    -951.92843428 Ry
     Harris-Foulkes estimate   =    -951.88640539 Ry
     estimated scf accuracy    <       1.25906426 Ry

     total magnetization       =    -0.00 Bohr mag/cell
     absolute magnetization    =     1.74 Bohr mag/cell

     iteration # 18     ecut=    70.00 Ry     beta= 0.70
     Davidson diagonalization with overlap
     ethr =  2.34E-04,  avg # of iterations =  2.0

     negative rho (up, down):  1.439E-02 3.423E-01

     total cpu time spent up to now is     1917.3 secs

     total energy              =    -951.82731597 Ry
     Harris-Foulkes estimate   =    -951.95307851 Ry
     estimated scf accuracy    <       4.18582871 Ry

     total magnetization       =    -0.00 Bohr mag/cell
     absolute magnetization    =     3.09 Bohr mag/cell

     iteration # 19     ecut=    70.00 Ry     beta= 0.70
     Davidson diagonalization with overlap
     ethr =  2.34E-04,  avg # of iterations =  2.0

     negative rho (up, down):  1.011E-02 3.218E-01

     total cpu time spent up to now is     2014.2 secs

     total energy              =    -951.88180541 Ry
     Harris-Foulkes estimate   =    -951.88390483 Ry
     estimated scf accuracy    <       1.13413662 Ry

     total magnetization       =     0.00 Bohr mag/cell
     absolute magnetization    =     1.67 Bohr mag/cell

     iteration # 20     ecut=    70.00 Ry     beta= 0.70
     Davidson diagonalization with overlap
     ethr =  2.34E-04,  avg # of iterations =  1.0

     negative rho (up, down):  7.866E-03 3.010E-01

     total cpu time spent up to now is     2105.1 secs

     total energy              =    -951.88116175 Ry
     Harris-Foulkes estimate   =    -951.88644826 Ry
     estimated scf accuracy    <       0.63777658 Ry

     total magnetization       =     0.00 Bohr mag/cell
     absolute magnetization    =     1.24 Bohr mag/cell

     iteration # 21     ecut=    70.00 Ry     beta= 0.70
     Davidson diagonalization with overlap
     ethr =  2.34E-04,  avg # of iterations =  1.5

     negative rho (up, down):  5.748E-03 2.879E-01

     total cpu time spent up to now is     2196.6 secs

     total energy              =    -951.86632179 Ry
     Harris-Foulkes estimate   =    -951.88811056 Ry
     estimated scf accuracy    <       0.48028808 Ry

     total magnetization       =     0.00 Bohr mag/cell
     absolute magnetization    =     1.06 Bohr mag/cell

     iteration # 22     ecut=    70.00 Ry     beta= 0.70
     Davidson diagonalization with overlap
     ethr =  2.22E-04,  avg # of iterations =  2.0

     negative rho (up, down):  3.672E-03 2.099E-01

     total cpu time spent up to now is     2288.5 secs

     total energy              =    -951.87970181 Ry
     Harris-Foulkes estimate   =    -951.88033106 Ry
     estimated scf accuracy    <       0.05727844 Ry

     total magnetization       =     0.00 Bohr mag/cell
     absolute magnetization    =     0.32 Bohr mag/cell

     iteration # 23     ecut=    70.00 Ry     beta= 0.70
     Davidson diagonalization with overlap
     ethr =  2.65E-05,  avg # of iterations =  2.5

     negative rho (up, down):  1.168E-02 7.243E-02

     total cpu time spent up to now is     2391.6 secs

     total energy              =    -951.86982419 Ry
     Harris-Foulkes estimate   =    -951.89393623 Ry
     estimated scf accuracy    <       0.46802764 Ry

     total magnetization       =    -0.00 Bohr mag/cell
     absolute magnetization    =     0.57 Bohr mag/cell

     iteration # 24     ecut=    70.00 Ry     beta= 0.70
     Davidson diagonalization with overlap
     ethr =  2.65E-05,  avg # of iterations =  2.5

     negative rho (up, down):  3.302E-03 1.410E-01

     total cpu time spent up to now is     2493.9 secs

     total energy              =    -951.88259778 Ry
     Harris-Foulkes estimate   =    -951.88394462 Ry
     estimated scf accuracy    <       0.05995174 Ry

     total magnetization       =     0.00 Bohr mag/cell
     absolute magnetization    =     0.37 Bohr mag/cell

     iteration # 25     ecut=    70.00 Ry     beta= 0.70
     Davidson diagonalization with overlap
     ethr =  2.65E-05,  avg # of iterations =  2.5

     negative rho (up, down):  2.098E-03 1.555E-01

     total cpu time spent up to now is     2589.1 secs

     total energy              =    -951.88165520 Ry
     Harris-Foulkes estimate   =    -951.88483191 Ry
     estimated scf accuracy    <       0.03807689 Ry

     total magnetization       =     0.00 Bohr mag/cell
     absolute magnetization    =     0.27 Bohr mag/cell

     iteration # 26     ecut=    70.00 Ry     beta= 0.70
     Davidson diagonalization with overlap
     ethr =  1.76E-05,  avg # of iterations =  6.0

     negative rho (up, down):  6.321E-03 2.808E-01

     total cpu time spent up to now is     2697.1 secs

     total energy              =    -951.87628280 Ry
     Harris-Foulkes estimate   =    -951.89741811 Ry
     estimated scf accuracy    <       0.82695210 Ry

     total magnetization       =     0.00 Bohr mag/cell
     absolute magnetization    =     1.34 Bohr mag/cell

     iteration # 27     ecut=    70.00 Ry     beta= 0.70
     Davidson diagonalization with overlap
     ethr =  1.76E-05,  avg # of iterations =  3.0

     negative rho (up, down):  5.035E-03 2.262E-01

     total cpu time spent up to now is     2801.0 secs

     total energy              =    -951.88010263 Ry
     Harris-Foulkes estimate   =    -951.88237446 Ry
     estimated scf accuracy    <       0.09235043 Ry

     total magnetization       =    -0.12 Bohr mag/cell
     absolute magnetization    =     0.52 Bohr mag/cell

     iteration # 28     ecut=    70.00 Ry     beta= 0.70
     Davidson diagonalization with overlap
     ethr =  1.76E-05,  avg # of iterations =  2.0

     negative rho (up, down):  1.798E-03 1.956E-01

     total cpu time spent up to now is     2895.3 secs

     total energy              =    -951.88513613 Ry
     Harris-Foulkes estimate   =    -951.88297272 Ry
     estimated scf accuracy    <       0.03581457 Ry

     total magnetization       =     0.00 Bohr mag/cell
     absolute magnetization    =     0.32 Bohr mag/cell

     iteration # 29     ecut=    70.00 Ry     beta= 0.70
     Davidson diagonalization with overlap
     ethr =  1.66E-05,  avg # of iterations =  2.0

     negative rho (up, down):  1.813E-03 1.936E-01

     total cpu time spent up to now is     2988.5 secs

     total energy              =    -951.88701344 Ry
     Harris-Foulkes estimate   =    -951.88534876 Ry
     estimated scf accuracy    <       0.04489974 Ry

     total magnetization       =    -0.00 Bohr mag/cell
     absolute magnetization    =     0.34 Bohr mag/cell

     iteration # 30     ecut=    70.00 Ry     beta= 0.70
     Davidson diagonalization with overlap
     ethr =  1.66E-05,  avg # of iterations =  2.0

     negative rho (up, down):  6.538E-03 2.207E-01

     total cpu time spent up to now is     3084.3 secs

     total energy              =    -951.88890369 Ry
     Harris-Foulkes estimate   =    -951.89050904 Ry
     estimated scf accuracy    <       0.36090415 Ry

     total magnetization       =     0.00 Bohr mag/cell
     absolute magnetization    =     0.84 Bohr mag/cell

     iteration # 31     ecut=    70.00 Ry     beta= 0.70
     Davidson diagonalization with overlap
     ethr =  1.66E-05,  avg # of iterations =  2.5

     negative rho (up, down):  8.274E-03 2.400E-01

     total cpu time spent up to now is     3177.2 secs

     total energy              =    -951.87998248 Ry
     Harris-Foulkes estimate   =    -951.88905014 Ry
     estimated scf accuracy    <       0.42037798 Ry

     total magnetization       =     0.00 Bohr mag/cell
     absolute magnetization    =     0.92 Bohr mag/cell

     iteration # 32     ecut=    70.00 Ry     beta= 0.70
     Davidson diagonalization with overlap
     ethr =  1.66E-05,  avg # of iterations =  2.0

     negative rho (up, down):  4.837E-03 2.192E-01

     total cpu time spent up to now is     3272.7 secs

     total energy              =    -951.88110169 Ry
     Harris-Foulkes estimate   =    -951.88291116 Ry
     estimated scf accuracy    <       0.08946366 Ry

     total magnetization       =     0.00 Bohr mag/cell
     absolute magnetization    =     0.43 Bohr mag/cell

     iteration # 33     ecut=    70.00 Ry     beta= 0.70
     Davidson diagonalization with overlap
     ethr =  1.66E-05,  avg # of iterations =  2.0

     negative rho (up, down):  2.279E-03 1.488E-01

     total cpu time spent up to now is     3367.0 secs

     total energy              =    -951.88350593 Ry
     Harris-Foulkes estimate   =    -951.88311979 Ry
     estimated scf accuracy    <       0.01579819 Ry

     total magnetization       =     0.00 Bohr mag/cell
     absolute magnetization    =     0.13 Bohr mag/cell

     iteration # 34     ecut=    70.00 Ry     beta= 0.70
     Davidson diagonalization with overlap
     ethr =  7.31E-06,  avg # of iterations =  3.0

     negative rho (up, down):  3.663E-03 1.162E-01

     total cpu time spent up to now is     3468.8 secs

     total energy              =    -951.88454147 Ry
     Harris-Foulkes estimate   =    -951.88662137 Ry
     estimated scf accuracy    <       0.08071035 Ry

     total magnetization       =     0.00 Bohr mag/cell
     absolute magnetization    =     0.31 Bohr mag/cell

     iteration # 35     ecut=    70.00 Ry     beta= 0.70
     Davidson diagonalization with overlap
     ethr =  7.31E-06,  avg # of iterations =  3.0

     negative rho (up, down):  1.247E-02 1.927E-01

     total cpu time spent up to now is     3580.5 secs

     total energy              =    -951.88245522 Ry
     Harris-Foulkes estimate   =    -951.89796833 Ry
     estimated scf accuracy    <       0.71308380 Ry

     total magnetization       =     0.00 Bohr mag/cell
     absolute magnetization    =     1.07 Bohr mag/cell

     iteration # 36     ecut=    70.00 Ry     beta= 0.70
     Davidson diagonalization with overlap
     ethr =  7.31E-06,  avg # of iterations =  3.5

     negative rho (up, down):  7.878E-03 2.594E-01

     total cpu time spent up to now is     3687.1 secs

     total energy              =    -951.88694091 Ry
     Harris-Foulkes estimate   =    -951.88831132 Ry
     estimated scf accuracy    <       0.42882458 Ry

     total magnetization       =    -0.15 Bohr mag/cell
     absolute magnetization    =     1.06 Bohr mag/cell

     iteration # 37     ecut=    70.00 Ry     beta= 0.70
     Davidson diagonalization with overlap
     ethr =  7.31E-06,  avg # of iterations =  3.0

     negative rho (up, down):  8.725E-03 2.413E-01

     total cpu time spent up to now is     3790.5 secs

     total energy              =    -951.88651022 Ry
     Harris-Foulkes estimate   =    -951.89080197 Ry
     estimated scf accuracy    <       0.50731650 Ry

     total magnetization       =     0.00 Bohr mag/cell
     absolute magnetization    =     1.01 Bohr mag/cell

     iteration # 38     ecut=    70.00 Ry     beta= 0.70
     Davidson diagonalization with overlap
     ethr =  7.31E-06,  avg # of iterations =  2.5

     negative rho (up, down):  7.132E-03 2.400E-01

     total cpu time spent up to now is     3887.2 secs

     total energy              =    -951.87795355 Ry
     Harris-Foulkes estimate   =    -951.88714852 Ry
     estimated scf accuracy    <       0.32182294 Ry

     total magnetization       =    -0.09 Bohr mag/cell
     absolute magnetization    =     0.85 Bohr mag/cell

     iteration # 39     ecut=    70.00 Ry     beta= 0.70
     Davidson diagonalization with overlap
     ethr =  7.31E-06,  avg # of iterations =  3.0

     negative rho (up, down):  3.062E-03 2.224E-01

     total cpu time spent up to now is     3988.6 secs

     total energy              =    -951.88106935 Ry
     Harris-Foulkes estimate   =    -951.88227336 Ry
     estimated scf accuracy    <       0.06371786 Ry

     total magnetization       =    -0.17 Bohr mag/cell
     absolute magnetization    =     0.50 Bohr mag/cell

     iteration # 40     ecut=    70.00 Ry     beta= 0.70
     Davidson diagonalization with overlap
     ethr =  7.31E-06,  avg # of iterations =  3.0

     negative rho (up, down):  2.689E-03 1.571E-01

     total cpu time spent up to now is     4092.4 secs

     total energy              =    -951.88479393 Ry
     Harris-Foulkes estimate   =    -951.88432530 Ry
     estimated scf accuracy    <       0.05370623 Ry

     total magnetization       =     0.00 Bohr mag/cell
     absolute magnetization    =     0.33 Bohr mag/cell

     iteration # 41     ecut=    70.00 Ry     beta= 0.70
     Davidson diagonalization with overlap
     ethr =  7.31E-06,  avg # of iterations =  3.0

     negative rho (up, down):  2.764E-03 1.717E-01

     total cpu time spent up to now is     4187.2 secs

     total energy              =    -951.88480237 Ry
     Harris-Foulkes estimate   =    -951.88514388 Ry
     estimated scf accuracy    <       0.05291790 Ry

     total magnetization       =    -0.00 Bohr mag/cell
     absolute magnetization    =     0.35 Bohr mag/cell

     iteration # 42     ecut=    70.00 Ry     beta= 0.70
     Davidson diagonalization with overlap
     ethr =  7.31E-06,  avg # of iterations =  1.0

     negative rho (up, down):  2.430E-03 1.770E-01

     total cpu time spent up to now is     4278.9 secs

     total energy              =    -951.88366019 Ry
     Harris-Foulkes estimate   =    -951.88484595 Ry
     estimated scf accuracy    <       0.03925563 Ry

     total magnetization       =    -0.00 Bohr mag/cell
     absolute magnetization    =     0.31 Bohr mag/cell

     iteration # 43     ecut=    70.00 Ry     beta= 0.70
     Davidson diagonalization with overlap
     ethr =  7.31E-06,  avg # of iterations =  2.0

     negative rho (up, down):  2.080E-03 1.358E-01

     total cpu time spent up to now is     4374.4 secs

     total energy              =    -951.88393303 Ry
     Harris-Foulkes estimate   =    -951.88482233 Ry
     estimated scf accuracy    <       0.02762217 Ry

     total magnetization       =    -0.00 Bohr mag/cell
     absolute magnetization    =     0.22 Bohr mag/cell

     iteration # 44     ecut=    70.00 Ry     beta= 0.70
     Davidson diagonalization with overlap
     ethr =  7.31E-06,  avg # of iterations =  2.5

     negative rho (up, down):  1.414E-03 9.692E-02

     total cpu time spent up to now is     4470.6 secs

     total energy              =    -951.88473378 Ry
     Harris-Foulkes estimate   =    -951.88497666 Ry
     estimated scf accuracy    <       0.01029034 Ry

     total magnetization       =    -0.00 Bohr mag/cell
     absolute magnetization    =     0.13 Bohr mag/cell

     iteration # 45     ecut=    70.00 Ry     beta= 0.70
     Davidson diagonalization with overlap
     ethr =  4.76E-06,  avg # of iterations =  3.0

     negative rho (up, down):  1.838E-03 9.179E-02

     total cpu time spent up to now is     4568.0 secs

     total energy              =    -951.88477222 Ry
     Harris-Foulkes estimate   =    -951.88542917 Ry
     estimated scf accuracy    <       0.01692560 Ry

     total magnetization       =    -0.00 Bohr mag/cell
     absolute magnetization    =     0.17 Bohr mag/cell

     iteration # 46     ecut=    70.00 Ry     beta= 0.70
     Davidson diagonalization with overlap
     ethr =  4.76E-06,  avg # of iterations =  2.5

     negative rho (up, down):  1.460E-03 1.733E-01

     total cpu time spent up to now is     4663.7 secs

     total energy              =    -951.88502077 Ry
     Harris-Foulkes estimate   =    -951.88555589 Ry
     estimated scf accuracy    <       0.03455374 Ry

     total magnetization       =     0.00 Bohr mag/cell
     absolute magnetization    =     0.29 Bohr mag/cell

     iteration # 47     ecut=    70.00 Ry     beta= 0.70
     Davidson diagonalization with overlap
     ethr =  4.76E-06,  avg # of iterations =  2.5

     negative rho (up, down):  1.512E-03 1.620E-01

     total cpu time spent up to now is     4757.2 secs

     total energy              =    -951.88520557 Ry
     Harris-Foulkes estimate   =    -951.88517055 Ry
     estimated scf accuracy    <       0.01945684 Ry

     total magnetization       =     0.00 Bohr mag/cell
     absolute magnetization    =     0.22 Bohr mag/cell

     iteration # 48     ecut=    70.00 Ry     beta= 0.70
     Davidson diagonalization with overlap
     ethr =  4.76E-06,  avg # of iterations =  2.0

     negative rho (up, down):  1.447E-03 1.721E-01

     total cpu time spent up to now is     4848.7 secs

     total energy              =    -951.88493749 Ry
     Harris-Foulkes estimate   =    -951.88534832 Ry
     estimated scf accuracy    <       0.02808802 Ry

     total magnetization       =     0.00 Bohr mag/cell
     absolute magnetization    =     0.26 Bohr mag/cell

     iteration # 49     ecut=    70.00 Ry     beta= 0.70
     Davidson diagonalization with overlap
     ethr =  4.76E-06,  avg # of iterations =  1.5

     negative rho (up, down):  1.304E-03 1.607E-01

     total cpu time spent up to now is     4940.0 secs

     total energy              =    -951.88427839 Ry
     Harris-Foulkes estimate   =    -951.88504296 Ry
     estimated scf accuracy    <       0.01494481 Ry

     total magnetization       =     0.00 Bohr mag/cell
     absolute magnetization    =     0.19 Bohr mag/cell

     iteration # 50     ecut=    70.00 Ry     beta= 0.70
     Davidson diagonalization with overlap
     ethr =  4.76E-06,  avg # of iterations =  2.0

     negative rho (up, down):  1.530E-03 1.091E-01

     total cpu time spent up to now is     5035.9 secs

     total energy              =    -951.88507586 Ry
     Harris-Foulkes estimate   =    -951.88508544 Ry
     estimated scf accuracy    <       0.01462808 Ry

     total magnetization       =    -0.00 Bohr mag/cell
     absolute magnetization    =     0.17 Bohr mag/cell

     iteration # 51     ecut=    70.00 Ry     beta= 0.70
     Davidson diagonalization with overlap
     ethr =  4.76E-06,  avg # of iterations =  3.0

     negative rho (up, down):  1.374E-03 1.213E-01

     total cpu time spent up to now is     5129.7 secs

     total energy              =    -951.88532183 Ry
     Harris-Foulkes estimate   =    -951.88523060 Ry
     estimated scf accuracy    <       0.00862804 Ry

     total magnetization       =    -0.00 Bohr mag/cell
     absolute magnetization    =     0.15 Bohr mag/cell

     iteration # 52     ecut=    70.00 Ry     beta= 0.70
     Davidson diagonalization with overlap
     ethr =  3.99E-06,  avg # of iterations =  1.0

     negative rho (up, down):  1.447E-03 1.516E-01

     total cpu time spent up to now is     5220.5 secs

     total energy              =    -951.88467946 Ry
     Harris-Foulkes estimate   =    -951.88535155 Ry
     estimated scf accuracy    <       0.01620740 Ry

     total magnetization       =    -0.00 Bohr mag/cell
     absolute magnetization    =     0.20 Bohr mag/cell

     iteration # 53     ecut=    70.00 Ry     beta= 0.70
     Davidson diagonalization with overlap
     ethr =  3.99E-06,  avg # of iterations =  2.0

     negative rho (up, down):  1.323E-03 9.873E-02

     total cpu time spent up to now is     5312.8 secs

     total energy              =    -951.88503330 Ry
     Harris-Foulkes estimate   =    -951.88494798 Ry
     estimated scf accuracy    <       0.00435461 Ry

     total magnetization       =     0.00 Bohr mag/cell
     absolute magnetization    =     0.09 Bohr mag/cell

     iteration # 54     ecut=    70.00 Ry     beta= 0.70
     Davidson diagonalization with overlap
     ethr =  2.02E-06,  avg # of iterations =  2.0

     negative rho (up, down):  1.346E-03 6.572E-02

     total cpu time spent up to now is     5409.2 secs

     total energy              =    -951.88501805 Ry
     Harris-Foulkes estimate   =    -951.88528159 Ry
     estimated scf accuracy    <       0.00482215 Ry

     total magnetization       =     0.00 Bohr mag/cell
     absolute magnetization    =     0.08 Bohr mag/cell

     iteration # 55     ecut=    70.00 Ry     beta= 0.70
     Davidson diagonalization with overlap
     ethr =  2.02E-06,  avg # of iterations =  3.0

     negative rho (up, down):  1.726E-03 7.104E-02

     total cpu time spent up to now is     5505.9 secs

     total energy              =    -951.88486109 Ry
     Harris-Foulkes estimate   =    -951.88545920 Ry
     estimated scf accuracy    <       0.01143933 Ry

     total magnetization       =    -0.00 Bohr mag/cell
     absolute magnetization    =     0.12 Bohr mag/cell

     iteration # 56     ecut=    70.00 Ry     beta= 0.70
     Davidson diagonalization with overlap
     ethr =  2.02E-06,  avg # of iterations =  2.5

     negative rho (up, down):  1.220E-03 1.033E-01

     total cpu time spent up to now is     5602.7 secs

     total energy              =    -951.88526671 Ry
     Harris-Foulkes estimate   =    -951.88518064 Ry
     estimated scf accuracy    <       0.00664505 Ry

     total magnetization       =     0.00 Bohr mag/cell
     absolute magnetization    =     0.13 Bohr mag/cell

     iteration # 57     ecut=    70.00 Ry     beta= 0.70
     Davidson diagonalization with overlap
     ethr =  2.02E-06,  avg # of iterations =  2.0

     negative rho (up, down):  1.229E-03 1.046E-01

     total cpu time spent up to now is     5695.8 secs

     total energy              =    -951.88517112 Ry
     Harris-Foulkes estimate   =    -951.88527690 Ry
     estimated scf accuracy    <       0.00424952 Ry

     total magnetization       =     0.00 Bohr mag/cell
     absolute magnetization    =     0.10 Bohr mag/cell

     iteration # 58     ecut=    70.00 Ry     beta= 0.70
     Davidson diagonalization with overlap
     ethr =  1.97E-06,  avg # of iterations =  1.5

     negative rho (up, down):  1.181E-03 8.095E-02

     total cpu time spent up to now is     5787.2 secs

     total energy              =    -951.88530540 Ry
     Harris-Foulkes estimate   =    -951.88521952 Ry
     estimated scf accuracy    <       0.00246272 Ry

     total magnetization       =     0.00 Bohr mag/cell
     absolute magnetization    =     0.08 Bohr mag/cell

     iteration # 59     ecut=    70.00 Ry     beta= 0.70
     Davidson diagonalization with overlap
     ethr =  1.14E-06,  avg # of iterations =  1.0

     negative rho (up, down):  1.178E-03 8.550E-02

     total cpu time spent up to now is     5878.0 secs

     total energy              =    -951.88516748 Ry
     Harris-Foulkes estimate   =    -951.88530684 Ry
     estimated scf accuracy    <       0.00273566 Ry

     total magnetization       =     0.00 Bohr mag/cell
     absolute magnetization    =     0.08 Bohr mag/cell

     iteration # 60     ecut=    70.00 Ry     beta= 0.70
     Davidson diagonalization with overlap
     ethr =  1.14E-06,  avg # of iterations =  2.0

     negative rho (up, down):  1.297E-03 7.164E-02

     total cpu time spent up to now is     5972.9 secs

     total energy              =    -951.88519927 Ry
     Harris-Foulkes estimate   =    -951.88532173 Ry
     estimated scf accuracy    <       0.00449169 Ry

     total magnetization       =    -0.00 Bohr mag/cell
     absolute magnetization    =     0.09 Bohr mag/cell

     iteration # 61     ecut=    70.00 Ry     beta= 0.70
     Davidson diagonalization with overlap
     ethr =  1.14E-06,  avg # of iterations =  1.5

     negative rho (up, down):  1.191E-03 5.473E-02

     total cpu time spent up to now is     6065.1 secs

     total energy              =    -951.88533153 Ry
     Harris-Foulkes estimate   =    -951.88525095 Ry
     estimated scf accuracy    <       0.00077944 Ry

     total magnetization       =     0.00 Bohr mag/cell
     absolute magnetization    =     0.05 Bohr mag/cell

     iteration # 62     ecut=    70.00 Ry     beta= 0.70
     Davidson diagonalization with overlap
     ethr =  3.61E-07,  avg # of iterations =  1.5

     negative rho (up, down):  1.196E-03 6.965E-02

     total cpu time spent up to now is     6156.2 secs

     total energy              =    -951.88529820 Ry
     Harris-Foulkes estimate   =    -951.88533985 Ry
     estimated scf accuracy    <       0.00185555 Ry

     total magnetization       =     0.00 Bohr mag/cell
     absolute magnetization    =     0.07 Bohr mag/cell

     iteration # 63     ecut=    70.00 Ry     beta= 0.70
     Davidson diagonalization with overlap
     ethr =  3.61E-07,  avg # of iterations =  1.5

     negative rho (up, down):  1.190E-03 6.695E-02

     total cpu time spent up to now is     6247.7 secs

     total energy              =    -951.88527419 Ry
     Harris-Foulkes estimate   =    -951.88531411 Ry
     estimated scf accuracy    <       0.00160997 Ry

     total magnetization       =    -0.00 Bohr mag/cell
     absolute magnetization    =     0.06 Bohr mag/cell

     iteration # 64     ecut=    70.00 Ry     beta= 0.70
     Davidson diagonalization with overlap
     ethr =  3.61E-07,  avg # of iterations =  2.0

     negative rho (up, down):  1.205E-03 6.032E-02

     total cpu time spent up to now is     6342.6 secs

     total energy              =    -951.88526704 Ry
     Harris-Foulkes estimate   =    -951.88533181 Ry
     estimated scf accuracy    <       0.00173014 Ry

     total magnetization       =    -0.00 Bohr mag/cell
     absolute magnetization    =     0.05 Bohr mag/cell

     iteration # 65     ecut=    70.00 Ry     beta= 0.70
     Davidson diagonalization with overlap
     ethr =  3.61E-07,  avg # of iterations =  2.0

     negative rho (up, down):  1.241E-03 4.676E-02

     total cpu time spent up to now is     6436.2 secs

     total energy              =    -951.88527812 Ry
     Harris-Foulkes estimate   =    -951.88532443 Ry
     estimated scf accuracy    <       0.00155719 Ry

     total magnetization       =     0.00 Bohr mag/cell
     absolute magnetization    =     0.05 Bohr mag/cell

     iteration # 66     ecut=    70.00 Ry     beta= 0.70
     Davidson diagonalization with overlap
     ethr =  3.61E-07,  avg # of iterations =  2.5

     negative rho (up, down):  1.241E-03 9.865E-02

     total cpu time spent up to now is     6532.1 secs

     total energy              =    -951.88526918 Ry
     Harris-Foulkes estimate   =    -951.88539652 Ry
     estimated scf accuracy    <       0.00560492 Ry

     total magnetization       =     0.00 Bohr mag/cell
     absolute magnetization    =     0.11 Bohr mag/cell

     iteration # 67     ecut=    70.00 Ry     beta= 0.70
     Davidson diagonalization with overlap
     ethr =  3.61E-07,  avg # of iterations =  1.5

     negative rho (up, down):  1.282E-03 1.039E-01

     total cpu time spent up to now is     6624.5 secs

     total energy              =    -951.88524266 Ry
     Harris-Foulkes estimate   =    -951.88527392 Ry
     estimated scf accuracy    <       0.00419038 Ry

     total magnetization       =    -0.00 Bohr mag/cell
     absolute magnetization    =     0.09 Bohr mag/cell

     iteration # 68     ecut=    70.00 Ry     beta= 0.70
     Davidson diagonalization with overlap
     ethr =  3.61E-07,  avg # of iterations =  2.0

     negative rho (up, down):  1.222E-03 1.219E-01

     total cpu time spent up to now is     6721.9 secs

     total energy              =    -951.88515714 Ry
     Harris-Foulkes estimate   =    -951.88534954 Ry
     estimated scf accuracy    <       0.00898857 Ry

     total magnetization       =     0.00 Bohr mag/cell
     absolute magnetization    =     0.14 Bohr mag/cell

     iteration # 69     ecut=    70.00 Ry     beta= 0.70
     Davidson diagonalization with overlap
     ethr =  3.61E-07,  avg # of iterations =  2.0

     negative rho (up, down):  1.167E-03 1.048E-01

     total cpu time spent up to now is     6816.3 secs

     total energy              =    -951.88507094 Ry
     Harris-Foulkes estimate   =    -951.88519376 Ry
     estimated scf accuracy    <       0.00339091 Ry

     total magnetization       =    -0.00 Bohr mag/cell
     absolute magnetization    =     0.09 Bohr mag/cell

     iteration # 70     ecut=    70.00 Ry     beta= 0.70
     Davidson diagonalization with overlap
     ethr =  3.61E-07,  avg # of iterations =  2.0

     negative rho (up, down):  1.232E-03 7.500E-02

     total cpu time spent up to now is     6915.8 secs

     total energy              =    -951.88529807 Ry
     Harris-Foulkes estimate   =    -951.88523629 Ry
     estimated scf accuracy    <       0.00312308 Ry

     total magnetization       =     0.00 Bohr mag/cell
     absolute magnetization    =     0.07 Bohr mag/cell

     iteration # 71     ecut=    70.00 Ry     beta= 0.70
     Davidson diagonalization with overlap
     ethr =  3.61E-07,  avg # of iterations =  2.0

     negative rho (up, down):  1.180E-03 8.824E-02

     total cpu time spent up to now is     7008.2 secs

     total energy              =    -951.88533134 Ry
     Harris-Foulkes estimate   =    -951.88532737 Ry
     estimated scf accuracy    <       0.00302594 Ry

     total magnetization       =    -0.00 Bohr mag/cell
     absolute magnetization    =     0.08 Bohr mag/cell

     iteration # 72     ecut=    70.00 Ry     beta= 0.70
     Davidson diagonalization with overlap
     ethr =  3.61E-07,  avg # of iterations =  1.0

     negative rho (up, down):  1.183E-03 1.052E-01

     total cpu time spent up to now is     7099.2 secs

     total energy              =    -951.88520887 Ry
     Harris-Foulkes estimate   =    -951.88533396 Ry
     estimated scf accuracy    <       0.00404314 Ry

     total magnetization       =     0.00 Bohr mag/cell
     absolute magnetization    =     0.10 Bohr mag/cell

     iteration # 73     ecut=    70.00 Ry     beta= 0.70
     Davidson diagonalization with overlap
     ethr =  3.61E-07,  avg # of iterations =  2.0

     negative rho (up, down):  1.219E-03 8.238E-02

     total cpu time spent up to now is     7192.1 secs

     total energy              =    -951.88519840 Ry
     Harris-Foulkes estimate   =    -951.88524761 Ry
     estimated scf accuracy    <       0.00225594 Ry

     total magnetization       =    -0.00 Bohr mag/cell
     absolute magnetization    =     0.06 Bohr mag/cell

     iteration # 74     ecut=    70.00 Ry     beta= 0.70
     Davidson diagonalization with overlap
     ethr =  3.61E-07,  avg # of iterations =  1.5

     negative rho (up, down):  1.193E-03 4.643E-02

     total cpu time spent up to now is     7286.8 secs

     total energy              =    -951.88527610 Ry
     Harris-Foulkes estimate   =    -951.88526775 Ry
     estimated scf accuracy    <       0.00093799 Ry

     total magnetization       =     0.00 Bohr mag/cell
     absolute magnetization    =     0.03 Bohr mag/cell

     iteration # 75     ecut=    70.00 Ry     beta= 0.70
     Davidson diagonalization with overlap
     ethr =  3.61E-07,  avg # of iterations =  2.0

     negative rho (up, down):  1.291E-03 3.148E-02

     total cpu time spent up to now is     7381.9 secs

     total energy              =    -951.88524867 Ry
     Harris-Foulkes estimate   =    -951.88537369 Ry
     estimated scf accuracy    <       0.00232409 Ry

     total magnetization       =     0.00 Bohr mag/cell
     absolute magnetization    =     0.05 Bohr mag/cell

     iteration # 76     ecut=    70.00 Ry     beta= 0.70
     Davidson diagonalization with overlap
     ethr =  3.61E-07,  avg # of iterations =  2.0

     negative rho (up, down):  1.161E-03 5.320E-02

     total cpu time spent up to now is     7476.1 secs

     total energy              =    -951.88535164 Ry
     Harris-Foulkes estimate   =    -951.88532909 Ry
     estimated scf accuracy    <       0.00160898 Ry

     total magnetization       =     0.00 Bohr mag/cell
     absolute magnetization    =     0.06 Bohr mag/cell

     iteration # 77     ecut=    70.00 Ry     beta= 0.70
     Davidson diagonalization with overlap
     ethr =  3.61E-07,  avg # of iterations =  1.0

     negative rho (up, down):  1.177E-03 6.332E-02

     total cpu time spent up to now is     7566.9 secs

     total energy              =    -951.88529021 Ry
     Harris-Foulkes estimate   =    -951.88535257 Ry
     estimated scf accuracy    <       0.00131172 Ry

     total magnetization       =     0.00 Bohr mag/cell
     absolute magnetization    =     0.05 Bohr mag/cell

     iteration # 78     ecut=    70.00 Ry     beta= 0.70
     Davidson diagonalization with overlap
     ethr =  3.61E-07,  avg # of iterations =  2.0

     negative rho (up, down):  1.153E-03 3.799E-02

     total cpu time spent up to now is     7659.1 secs

     total energy              =    -951.88535316 Ry
     Harris-Foulkes estimate   =    -951.88530905 Ry
     estimated scf accuracy    <       0.00037046 Ry

     total magnetization       =    -0.00 Bohr mag/cell
     absolute magnetization    =     0.03 Bohr mag/cell

     iteration # 79     ecut=    70.00 Ry     beta= 0.70
     Davidson diagonalization with overlap
     ethr =  1.72E-07,  avg # of iterations =  1.0

     negative rho (up, down):  1.148E-03 3.445E-02

     total cpu time spent up to now is     7750.1 secs

     total energy              =    -951.88534302 Ry
     Harris-Foulkes estimate   =    -951.88535350 Ry
     estimated scf accuracy    <       0.00033387 Ry

     total magnetization       =    -0.00 Bohr mag/cell
     absolute magnetization    =     0.03 Bohr mag/cell

     iteration # 80     ecut=    70.00 Ry     beta= 0.70
     Davidson diagonalization with overlap
     ethr =  1.55E-07,  avg # of iterations =  2.0

     negative rho (up, down):  1.196E-03 4.127E-02

     total cpu time spent up to now is     7846.3 secs

     total energy              =    -951.88531086 Ry
     Harris-Foulkes estimate   =    -951.88537507 Ry
     estimated scf accuracy    <       0.00129514 Ry

     total magnetization       =    -0.00 Bohr mag/cell
     absolute magnetization    =     0.04 Bohr mag/cell

     iteration # 81     ecut=    70.00 Ry     beta= 0.70
     Davidson diagonalization with overlap
     ethr =  1.55E-07,  avg # of iterations =  2.0

     negative rho (up, down):  1.152E-03 2.644E-02

     total cpu time spent up to now is     7940.4 secs

     total energy              =    -951.88536173 Ry
     Harris-Foulkes estimate   =    -951.88532826 Ry
     estimated scf accuracy    <       0.00014318 Ry

     total magnetization       =    -0.00 Bohr mag/cell
     absolute magnetization    =     0.02 Bohr mag/cell

     iteration # 82     ecut=    70.00 Ry     beta= 0.70
     Davidson diagonalization with overlap
     ethr =  6.63E-08,  avg # of iterations =  1.5

     negative rho (up, down):  1.150E-03 3.348E-02

     total cpu time spent up to now is     8031.6 secs

     total energy              =    -951.88535866 Ry
     Harris-Foulkes estimate   =    -951.88536363 Ry
     estimated scf accuracy    <       0.00034998 Ry

     total magnetization       =     0.00 Bohr mag/cell
     absolute magnetization    =     0.03 Bohr mag/cell

     iteration # 83     ecut=    70.00 Ry     beta= 0.70
     Davidson diagonalization with overlap
     ethr =  6.63E-08,  avg # of iterations =  1.0

     negative rho (up, down):  1.151E-03 3.358E-02

     total cpu time spent up to now is     8122.7 secs

     total energy              =    -951.88535497 Ry
     Harris-Foulkes estimate   =    -951.88535976 Ry
     estimated scf accuracy    <       0.00032527 Ry

     total magnetization       =    -0.00 Bohr mag/cell
     absolute magnetization    =     0.03 Bohr mag/cell

     iteration # 84     ecut=    70.00 Ry     beta= 0.70
     Davidson diagonalization with overlap
     ethr =  6.63E-08,  avg # of iterations =  2.0

     negative rho (up, down):  1.171E-03 4.103E-02

     total cpu time spent up to now is     8218.6 secs

     total energy              =    -951.88532495 Ry
     Harris-Foulkes estimate   =    -951.88536964 Ry
     estimated scf accuracy    <       0.00077197 Ry

     total magnetization       =     0.00 Bohr mag/cell
     absolute magnetization    =     0.03 Bohr mag/cell

     iteration # 85     ecut=    70.00 Ry     beta= 0.70
     Davidson diagonalization with overlap
     ethr =  6.63E-08,  avg # of iterations =  2.0

     negative rho (up, down):  1.164E-03 2.128E-02

     total cpu time spent up to now is     8313.2 secs

     total energy              =    -951.88535231 Ry
     Harris-Foulkes estimate   =    -951.88534321 Ry
     estimated scf accuracy    <       0.00027028 Ry

     total magnetization       =     0.00 Bohr mag/cell
     absolute magnetization    =     0.02 Bohr mag/cell

     iteration # 86     ecut=    70.00 Ry     beta= 0.70
     Davidson diagonalization with overlap
     ethr =  6.63E-08,  avg # of iterations =  2.5

     negative rho (up, down):  1.181E-03 5.537E-02

     total cpu time spent up to now is     8408.8 secs

     total energy              =    -951.88534017 Ry
     Harris-Foulkes estimate   =    -951.88538067 Ry
     estimated scf accuracy    <       0.00150245 Ry

     total magnetization       =    -0.00 Bohr mag/cell
     absolute magnetization    =     0.05 Bohr mag/cell

     iteration # 87     ecut=    70.00 Ry     beta= 0.70
     Davidson diagonalization with overlap
     ethr =  6.63E-08,  avg # of iterations =  1.0

     negative rho (up, down):  1.208E-03 6.402E-02

     total cpu time spent up to now is     8499.9 secs

     total energy              =    -951.88532967 Ry
     Harris-Foulkes estimate   =    -951.88534047 Ry
     estimated scf accuracy    <       0.00139793 Ry

     total magnetization       =    -0.00 Bohr mag/cell
     absolute magnetization    =     0.05 Bohr mag/cell

     iteration # 88     ecut=    70.00 Ry     beta= 0.70
     Davidson diagonalization with overlap
     ethr =  6.63E-08,  avg # of iterations =  2.5

     negative rho (up, down):  1.235E-03 9.877E-02

     total cpu time spent up to now is     8601.0 secs

     total energy              =    -951.88514791 Ry
     Harris-Foulkes estimate   =    -951.88538713 Ry
     estimated scf accuracy    <       0.00549876 Ry

     total magnetization       =     0.00 Bohr mag/cell
     absolute magnetization    =     0.11 Bohr mag/cell

     iteration # 89     ecut=    70.00 Ry     beta= 0.70
     Davidson diagonalization with overlap
     ethr =  6.63E-08,  avg # of iterations =  3.0

     negative rho (up, down):  1.181E-03 6.075E-02

     total cpu time spent up to now is     8704.1 secs

     total energy              =    -951.88528776 Ry
     Harris-Foulkes estimate   =    -951.88521059 Ry
     estimated scf accuracy    <       0.00063954 Ry

     total magnetization       =    -0.00 Bohr mag/cell
     absolute magnetization    =     0.03 Bohr mag/cell

     iteration # 90     ecut=    70.00 Ry     beta= 0.70
     Davidson diagonalization with overlap
     ethr =  6.63E-08,  avg # of iterations =  2.0

     negative rho (up, down):  1.177E-03 4.422E-02

     total cpu time spent up to now is     8802.4 secs

     total energy              =    -951.88533721 Ry
     Harris-Foulkes estimate   =    -951.88531508 Ry
     estimated scf accuracy    <       0.00059471 Ry

     total magnetization       =     0.00 Bohr mag/cell
     absolute magnetization    =     0.03 Bohr mag/cell

     iteration # 91     ecut=    70.00 Ry     beta= 0.70
     Davidson diagonalization with overlap
     ethr =  6.63E-08,  avg # of iterations =  2.0

     negative rho (up, down):  1.160E-03 4.330E-02

     total cpu time spent up to now is     8896.8 secs

     total energy              =    -951.88535799 Ry
     Harris-Foulkes estimate   =    -951.88534660 Ry
     estimated scf accuracy    <       0.00059986 Ry

     total magnetization       =    -0.00 Bohr mag/cell
     absolute magnetization    =     0.04 Bohr mag/cell

     iteration # 92     ecut=    70.00 Ry     beta= 0.70
     Davidson diagonalization with overlap
     ethr =  6.63E-08,  avg # of iterations =  1.0

     negative rho (up, down):  1.164E-03 5.298E-02

     total cpu time spent up to now is     8987.8 secs

     total energy              =    -951.88533227 Ry
     Harris-Foulkes estimate   =    -951.88535864 Ry
     estimated scf accuracy    <       0.00083379 Ry

     total magnetization       =     0.00 Bohr mag/cell
     absolute magnetization    =     0.04 Bohr mag/cell

     iteration # 93     ecut=    70.00 Ry     beta= 0.70
     Davidson diagonalization with overlap
     ethr =  6.63E-08,  avg # of iterations =  2.0

     negative rho (up, down):  1.171E-03 4.311E-02

     total cpu time spent up to now is     9079.9 secs

     total energy              =    -951.88532595 Ry
     Harris-Foulkes estimate   =    -951.88533785 Ry
     estimated scf accuracy    <       0.00050478 Ry

     total magnetization       =    -0.00 Bohr mag/cell
     absolute magnetization    =     0.03 Bohr mag/cell

     iteration # 94     ecut=    70.00 Ry     beta= 0.70
     Davidson diagonalization with overlap
     ethr =  6.63E-08,  avg # of iterations =  1.5

     negative rho (up, down):  1.158E-03 2.219E-02

     total cpu time spent up to now is     9174.8 secs

     total energy              =    -951.88535311 Ry
     Harris-Foulkes estimate   =    -951.88533857 Ry
     estimated scf accuracy    <       0.00013205 Ry

     total magnetization       =    -0.00 Bohr mag/cell
     absolute magnetization    =     0.01 Bohr mag/cell

     iteration # 95     ecut=    70.00 Ry     beta= 0.70
     Davidson diagonalization with overlap
     ethr =  6.11E-08,  avg # of iterations =  2.0

     negative rho (up, down):  1.159E-03 1.334E-02

     total cpu time spent up to now is     9268.3 secs

     total energy              =    -951.88535647 Ry
     Harris-Foulkes estimate   =    -951.88536649 Ry
     estimated scf accuracy    <       0.00027655 Ry

     total magnetization       =    -0.00 Bohr mag/cell
     absolute magnetization    =     0.02 Bohr mag/cell

     iteration # 96     ecut=    70.00 Ry     beta= 0.70
     Davidson diagonalization with overlap
     ethr =  6.11E-08,  avg # of iterations =  2.0

     negative rho (up, down):  1.155E-03 2.563E-02

     total cpu time spent up to now is     9361.7 secs

     total energy              =    -951.88536613 Ry
     Harris-Foulkes estimate   =    -951.88537048 Ry
     estimated scf accuracy    <       0.00037960 Ry

     total magnetization       =    -0.00 Bohr mag/cell
     absolute magnetization    =     0.03 Bohr mag/cell

     iteration # 97     ecut=    70.00 Ry     beta= 0.70
     Davidson diagonalization with overlap
     ethr =  6.11E-08,  avg # of iterations =  1.0

     negative rho (up, down):  1.161E-03 3.618E-02

     total cpu time spent up to now is     9452.2 secs

     total energy              =    -951.88534238 Ry
     Harris-Foulkes estimate   =    -951.88536627 Ry
     estimated scf accuracy    <       0.00042036 Ry

     total magnetization       =     0.00 Bohr mag/cell
     absolute magnetization    =     0.03 Bohr mag/cell

     iteration # 98     ecut=    70.00 Ry     beta= 0.70
     Davidson diagonalization with overlap
     ethr =  6.11E-08,  avg # of iterations =  2.0

     negative rho (up, down):  1.151E-03 2.134E-02

     total cpu time spent up to now is     9545.5 secs

     total energy              =    -951.88536274 Ry
     Harris-Foulkes estimate   =    -951.88534857 Ry
     estimated scf accuracy    <       0.00011259 Ry

     total magnetization       =    -0.00 Bohr mag/cell
     absolute magnetization    =     0.02 Bohr mag/cell

     iteration # 99     ecut=    70.00 Ry     beta= 0.70
     Davidson diagonalization with overlap
     ethr =  5.21E-08,  avg # of iterations =  1.0

     negative rho (up, down):  1.148E-03 1.577E-02

     total cpu time spent up to now is     9636.4 secs

     total energy              =    -951.88536503 Ry
     Harris-Foulkes estimate   =    -951.88536333 Ry
     estimated scf accuracy    <       0.00005400 Ry

     total magnetization       =     0.00 Bohr mag/cell
     absolute magnetization    =     0.01 Bohr mag/cell

     iteration #100     ecut=    70.00 Ry     beta= 0.70
     Davidson diagonalization with overlap
     ethr =  2.50E-08,  avg # of iterations =  2.0

     negative rho (up, down):  1.151E-03 1.756E-02

     Magnetic moment per site:
     atom:    1    charge:    0.2109    magn:   -0.0000    constr:    0.0000
     atom:    2    charge:    0.2109    magn:    0.0000    constr:    0.0000
     atom:    3    charge:    1.7155    magn:   -0.0000    constr:    0.0000
     atom:    4    charge:    1.7152    magn:    0.0000    constr:    0.0000
     atom:    5    charge:    1.7168    magn:   -0.0000    constr:    0.0000
     atom:    6    charge:    1.7146    magn:    0.0000    constr:    0.0000
     atom:    7    charge:    1.7169    magn:   -0.0000    constr:    0.0000
     atom:    8    charge:    1.7153    magn:    0.0000    constr:    0.0000
     atom:    9    charge:    1.7156    magn:   -0.0000    constr:    0.0000
     atom:   10    charge:    1.7177    magn:   -0.0000    constr:    0.0000
     atom:   11    charge:    1.7156    magn:   -0.0000    constr:    0.0000
     atom:   12    charge:    1.7177    magn:    0.0000    constr:    0.0000
     atom:   13    charge:    1.7156    magn:   -0.0000    constr:    0.0000
     atom:   14    charge:    1.7176    magn:   -0.0000    constr:    0.0000
     atom:   15    charge:    1.7117    magn:   -0.0000    constr:    0.0000
     atom:   16    charge:    1.7113    magn:   -0.0000    constr:    0.0000
     atom:   17    charge:    1.7207    magn:    0.0000    constr:    0.0000
     atom:   18    charge:    1.7114    magn:    0.0000    constr:    0.0000
     atom:   19    charge:    1.7118    magn:   -0.0000    constr:    0.0000
     atom:   20    charge:    1.7176    magn:    0.0000    constr:    0.0000
     atom:   21    charge:    1.7156    magn:   -0.0000    constr:    0.0000
     atom:   22    charge:    1.7177    magn:    0.0000    constr:    0.0000
     atom:   23    charge:    1.7155    magn:   -0.0000    constr:    0.0000
     atom:   24    charge:    1.7152    magn:    0.0000    constr:    0.0000
     atom:   25    charge:    1.7117    magn:   -0.0000    constr:    0.0000
     atom:   26    charge:    1.7114    magn:   -0.0000    constr:    0.0000
     atom:   27    charge:    1.8186    magn:    0.0000    constr:    0.0000
     atom:   28    charge:   13.4057    magn:    0.0001    constr:    0.0000
     atom:   29    charge:    1.8186    magn:   -0.0000    constr:    0.0000
     atom:   30    charge:    1.7113    magn:    0.0000    constr:    0.0000
     atom:   31    charge:    1.7118    magn:   -0.0000    constr:    0.0000
     atom:   32    charge:    1.7152    magn:    0.0000    constr:    0.0000
     atom:   33    charge:    1.7168    magn:   -0.0000    constr:    0.0000
     atom:   34    charge:    1.7154    magn:    0.0000    constr:    0.0000
     atom:   35    charge:    1.7168    magn:   -0.0000    constr:    0.0000
     atom:   36    charge:    1.7146    magn:    0.0000    constr:    0.0000
     atom:   37    charge:    1.7207    magn:   -0.0000    constr:    0.0000
     atom:   38    charge:    1.7114    magn:   -0.0000    constr:    0.0000
     atom:   39    charge:    1.8187    magn:    0.0000    constr:    0.0000
     atom:   40    charge:    1.7113    magn:   -0.0000    constr:    0.0000
     atom:   41    charge:    1.7206    magn:   -0.0000    constr:    0.0000
     atom:   42    charge:    1.7146    magn:    0.0000    constr:    0.0000
     atom:   43    charge:    1.7168    magn:   -0.0000    constr:    0.0000
     atom:   44    charge:    1.7154    magn:    0.0000    constr:    0.0000
     atom:   45    charge:    1.7213    magn:   -0.0000    constr:    0.0000
     atom:   46    charge:    1.7154    magn:    0.0000    constr:    0.0000
     atom:   47    charge:    1.7169    magn:   -0.0000    constr:    0.0000
     atom:   48    charge:    1.7153    magn:    0.0000    constr:    0.0000
     atom:   49    charge:    1.7118    magn:   -0.0000    constr:    0.0000
     atom:   50    charge:    1.7176    magn:    0.0000    constr:    0.0000
     atom:   51    charge:    1.7117    magn:   -0.0000    constr:    0.0000
     atom:   52    charge:    1.7152    magn:    0.0000    constr:    0.0000

     total cpu time spent up to now is     9729.8 secs

     total energy              =    -951.88536176 Ry
     Harris-Foulkes estimate   =    -951.88536826 Ry
     estimated scf accuracy    <       0.00015280 Ry

     total magnetization       =     0.00 Bohr mag/cell
     absolute magnetization    =     0.02 Bohr mag/cell

     iteration #101     ecut=    70.00 Ry     beta= 0.70
     Davidson diagonalization with overlap
     ethr =  2.50E-08,  avg # of iterations =  2.0

     negative rho (up, down):  1.146E-03 1.444E-02

     total cpu time spent up to now is     9823.4 secs

     total energy              =    -951.88536757 Ry
     Harris-Foulkes estimate   =    -951.88536455 Ry
     estimated scf accuracy    <       0.00005800 Ry

     total magnetization       =     0.00 Bohr mag/cell
     absolute magnetization    =     0.01 Bohr mag/cell

     iteration #102     ecut=    70.00 Ry     beta= 0.70
     Davidson diagonalization with overlap
     ethr =  2.50E-08,  avg # of iterations =  1.0

     negative rho (up, down):  1.147E-03 1.638E-02

     total cpu time spent up to now is     9913.9 secs

     total energy              =    -951.88536704 Ry
     Harris-Foulkes estimate   =    -951.88536783 Ry
     estimated scf accuracy    <       0.00007227 Ry

     total magnetization       =    -0.00 Bohr mag/cell
     absolute magnetization    =     0.01 Bohr mag/cell

     iteration #103     ecut=    70.00 Ry     beta= 0.70
     Davidson diagonalization with overlap
     ethr =  2.50E-08,  avg # of iterations =  1.0

     negative rho (up, down):  1.148E-03 1.721E-02

     total cpu time spent up to now is    10004.5 secs

     total energy              =    -951.88536786 Ry
     Harris-Foulkes estimate   =    -951.88536722 Ry
     estimated scf accuracy    <       0.00008875 Ry

     total magnetization       =     0.00 Bohr mag/cell
     absolute magnetization    =     0.01 Bohr mag/cell

     iteration #104     ecut=    70.00 Ry     beta= 0.70
     Davidson diagonalization with overlap
     ethr =  2.50E-08,  avg # of iterations =  2.0

     negative rho (up, down):  1.157E-03 3.008E-02

     total cpu time spent up to now is    10099.6 secs

     total energy              =    -951.88537163 Ry
     Harris-Foulkes estimate   =    -951.88537148 Ry
     estimated scf accuracy    <       0.00036269 Ry

     total magnetization       =     0.00 Bohr mag/cell
     absolute magnetization    =     0.03 Bohr mag/cell

     iteration #105     ecut=    70.00 Ry     beta= 0.70
     Davidson diagonalization with overlap
     ethr =  2.50E-08,  avg # of iterations =  2.0

     negative rho (up, down):  1.166E-03 5.771E-02

     total cpu time spent up to now is    10196.5 secs

     total energy              =    -951.88533470 Ry
     Harris-Foulkes estimate   =    -951.88537893 Ry
     estimated scf accuracy    <       0.00130269 Ry

     total magnetization       =     0.00 Bohr mag/cell
     absolute magnetization    =     0.05 Bohr mag/cell

     iteration #106     ecut=    70.00 Ry     beta= 0.70
     Davidson diagonalization with overlap
     ethr =  2.50E-08,  avg # of iterations =  2.0

     negative rho (up, down):  1.184E-03 5.357E-02

     total cpu time spent up to now is    10290.4 secs

     total energy              =    -951.88532245 Ry
     Harris-Foulkes estimate   =    -951.88533946 Ry
     estimated scf accuracy    <       0.00100870 Ry

     total magnetization       =     0.00 Bohr mag/cell
     absolute magnetization    =     0.04 Bohr mag/cell

     iteration #107     ecut=    70.00 Ry     beta= 0.70
     Davidson diagonalization with overlap
     ethr =  2.50E-08,  avg # of iterations =  2.5

     negative rho (up, down):  1.188E-03 5.312E-02

     total cpu time spent up to now is    10386.6 secs

     total energy              =    -951.88530360 Ry
     Harris-Foulkes estimate   =    -951.88533374 Ry
     estimated scf accuracy    <       0.00123953 Ry

     total magnetization       =    -0.00 Bohr mag/cell
     absolute magnetization    =     0.05 Bohr mag/cell

     iteration #108     ecut=    70.00 Ry     beta= 0.70
     Davidson diagonalization with overlap
     ethr =  2.50E-08,  avg # of iterations =  2.5

     negative rho (up, down):  1.159E-03 3.272E-02

     total cpu time spent up to now is    10484.6 secs

     total energy              =    -951.88533673 Ry
     Harris-Foulkes estimate   =    -951.88531387 Ry
     estimated scf accuracy    <       0.00020471 Ry

     total magnetization       =     0.00 Bohr mag/cell
     absolute magnetization    =     0.02 Bohr mag/cell

     iteration #109     ecut=    70.00 Ry     beta= 0.70
     Davidson diagonalization with overlap
     ethr =  2.50E-08,  avg # of iterations =  2.5

     negative rho (up, down):  1.147E-03 1.454E-02

     total cpu time spent up to now is    10584.9 secs

     total energy              =    -951.88537775 Ry
     Harris-Foulkes estimate   =    -951.88535130 Ry
     estimated scf accuracy    <       0.00019441 Ry

     total magnetization       =     0.00 Bohr mag/cell
     absolute magnetization    =     0.02 Bohr mag/cell

     iteration #110     ecut=    70.00 Ry     beta= 0.70
     Davidson diagonalization with overlap
     ethr =  2.50E-08,  avg # of iterations =  2.0

     negative rho (up, down):  1.154E-03 4.384E-02

     total cpu time spent up to now is    10681.6 secs

     total energy              =    -951.88531972 Ry
     Harris-Foulkes estimate   =    -951.88538363 Ry
     estimated scf accuracy    <       0.00095951 Ry

     total magnetization       =     0.00 Bohr mag/cell
     absolute magnetization    =     0.04 Bohr mag/cell

     iteration #111     ecut=    70.00 Ry     beta= 0.70
     Davidson diagonalization with overlap
     ethr =  2.50E-08,  avg # of iterations =  3.0

     negative rho (up, down):  1.157E-03 1.869E-02

     total cpu time spent up to now is    10783.1 secs

     total energy              =    -951.88535407 Ry
     Harris-Foulkes estimate   =    -951.88534123 Ry
     estimated scf accuracy    <       0.00021464 Ry

     total magnetization       =     0.00 Bohr mag/cell
     absolute magnetization    =     0.01 Bohr mag/cell

[...]
     ethr =  1.82E-09,  avg # of iterations =  1.0

     negative rho (up, down):  1.147E-03 4.805E-03

     total cpu time spent up to now is    11273.4 secs

     total energy              =    -951.88536885 Ry
     Harris-Foulkes estimate   =    -951.88536883 Ry
     estimated scf accuracy    <       0.00000608 Ry

     total magnetization       =    -0.00 Bohr mag/cell
     absolute magnetization    =     0.00 Bohr mag/cell

     iteration #117     ecut=    70.00 Ry     beta= 0.70
     Davidson diagonalization with overlap
     ethr =  1.82E-09,  avg # of iterations =  1.5

     negative rho (up, down):  1.147E-03 5.334E-03

     total cpu time spent up to now is    11365.2 secs

     total energy              =    -951.88536864 Ry
     Harris-Foulkes estimate   =    -951.88536891 Ry
     estimated scf accuracy    <       0.00001111 Ry

     total magnetization       =     0.00 Bohr mag/cell
     absolute magnetization    =     0.00 Bohr mag/cell

     iteration #118     ecut=    70.00 Ry     beta= 0.70
     Davidson diagonalization with overlap
     ethr =  1.82E-09,  avg # of iterations =  1.5

     negative rho (up, down):  1.147E-03 5.044E-03

     total cpu time spent up to now is    11457.0 secs

     total energy              =    -951.88536848 Ry
     Harris-Foulkes estimate   =    -951.88536867 Ry
     estimated scf accuracy    <       0.00000720 Ry

     total magnetization       =    -0.00 Bohr mag/cell
     absolute magnetization    =     0.00 Bohr mag/cell

     iteration #119     ecut=    70.00 Ry     beta= 0.70
     Davidson diagonalization with overlap
     ethr =  1.82E-09,  avg # of iterations =  2.0

     negative rho (up, down):  1.147E-03 5.701E-03

     total cpu time spent up to now is    11553.1 secs

     total energy              =    -951.88536870 Ry
     Harris-Foulkes estimate   =    -951.88536898 Ry
     estimated scf accuracy    <       0.00001402 Ry

     total magnetization       =    -0.00 Bohr mag/cell
     absolute magnetization    =     0.01 Bohr mag/cell

     iteration #120     ecut=    70.00 Ry     beta= 0.70
     Davidson diagonalization with overlap
     ethr =  1.82E-09,  avg # of iterations =  1.5

     negative rho (up, down):  1.147E-03 6.075E-03

     total cpu time spent up to now is    11644.8 secs

     total energy              =    -951.88536854 Ry
     Harris-Foulkes estimate   =    -951.88536879 Ry
     estimated scf accuracy    <       0.00001150 Ry

     total magnetization       =     0.00 Bohr mag/cell
     absolute magnetization    =     0.01 Bohr mag/cell

     iteration #121     ecut=    70.00 Ry     beta= 0.70
     Davidson diagonalization with overlap
     ethr =  1.82E-09,  avg # of iterations =  2.0

     negative rho (up, down):  1.146E-03 4.668E-03

     total cpu time spent up to now is    11739.0 secs

     total energy              =    -951.88537008 Ry
     Harris-Foulkes estimate   =    -951.88536871 Ry
     estimated scf accuracy    <       0.00000941 Ry

     total magnetization       =    -0.00 Bohr mag/cell
     absolute magnetization    =     0.00 Bohr mag/cell

     iteration #122     ecut=    70.00 Ry     beta= 0.70
     Davidson diagonalization with overlap
     ethr =  1.82E-09,  avg # of iterations =  3.0

     negative rho (up, down):  1.149E-03 2.996E-02

     total cpu time spent up to now is    11843.7 secs

     total energy              =    -951.88535129 Ry
     Harris-Foulkes estimate   =    -951.88537438 Ry
     estimated scf accuracy    <       0.00035444 Ry

     total magnetization       =     0.00 Bohr mag/cell
     absolute magnetization    =     0.03 Bohr mag/cell

     iteration #123     ecut=    70.00 Ry     beta= 0.70
     Davidson diagonalization with overlap
     ethr =  1.82E-09,  avg # of iterations =  3.0

     negative rho (up, down):  1.146E-03 1.092E-02

     total cpu time spent up to now is    11950.8 secs

     total energy              =    -951.88536723 Ry
     Harris-Foulkes estimate   =    -951.88535628 Ry
     estimated scf accuracy    <       0.00000242 Ry

     total magnetization       =    -0.00 Bohr mag/cell
     absolute magnetization    =     0.00 Bohr mag/cell

     iteration #124     ecut=    70.00 Ry     beta= 0.70
     Davidson diagonalization with overlap
     ethr =  1.12E-09,  avg # of iterations =  2.0

     negative rho (up, down):  1.146E-03 2.507E-03

     total cpu time spent up to now is    12048.1 secs

     total energy              =    -951.88536870 Ry
     Harris-Foulkes estimate   =    -951.88536756 Ry
     estimated scf accuracy    <       0.00000609 Ry

     total magnetization       =    -0.00 Bohr mag/cell
     absolute magnetization    =     0.00 Bohr mag/cell

     iteration #125     ecut=    70.00 Ry     beta= 0.70
     Davidson diagonalization with overlap
     ethr =  1.12E-09,  avg # of iterations =  2.0

     negative rho (up, down):  1.146E-03 1.976E-03

     total cpu time spent up to now is    12143.6 secs

     total energy              =    -951.88536884 Ry
     Harris-Foulkes estimate   =    -951.88536892 Ry
     estimated scf accuracy    <       0.00000142 Ry

     total magnetization       =    -0.00 Bohr mag/cell
     absolute magnetization    =     0.00 Bohr mag/cell

     iteration #126     ecut=    70.00 Ry     beta= 0.70
     Davidson diagonalization with overlap
     ethr =  6.57E-10,  avg # of iterations =  2.5

     negative rho (up, down):  1.146E-03 3.856E-03

     total cpu time spent up to now is    12239.9 secs

     total energy              =    -951.88536882 Ry
     Harris-Foulkes estimate   =    -951.88536918 Ry
     estimated scf accuracy    <       0.00001263 Ry

     total magnetization       =    -0.00 Bohr mag/cell
     absolute magnetization    =     0.00 Bohr mag/cell

     iteration #127     ecut=    70.00 Ry     beta= 0.70
     Davidson diagonalization with overlap
     ethr =  6.57E-10,  avg # of iterations =  2.0

     negative rho (up, down):  1.147E-03 7.459E-03

     total cpu time spent up to now is    12333.9 secs

     total energy              =    -951.88536797 Ry
     Harris-Foulkes estimate   =    -951.88536889 Ry
     estimated scf accuracy    <       0.00001895 Ry

     total magnetization       =     0.00 Bohr mag/cell
     absolute magnetization    =     0.01 Bohr mag/cell

     iteration #128     ecut=    70.00 Ry     beta= 0.70
     Davidson diagonalization with overlap
     ethr =  6.57E-10,  avg # of iterations =  2.0

     negative rho (up, down):  1.146E-03 4.131E-03

     total cpu time spent up to now is    12431.1 secs

     total energy              =    -951.88536871 Ry
     Harris-Foulkes estimate   =    -951.88536816 Ry
     estimated scf accuracy    <       0.00000203 Ry

     total magnetization       =    -0.00 Bohr mag/cell
     absolute magnetization    =     0.00 Bohr mag/cell

     iteration #129     ecut=    70.00 Ry     beta= 0.70
     Davidson diagonalization with overlap
     ethr =  6.57E-10,  avg # of iterations =  2.0

     negative rho (up, down):  1.145E-03 7.133E-05

     Magnetic moment per site:
     atom:    1    charge:    0.2109    magn:    0.0000    constr:    0.0000
     atom:    2    charge:    0.2109    magn:   -0.0000    constr:    0.0000
     atom:    3    charge:    1.7155    magn:   -0.0000    constr:    0.0000
     atom:    4    charge:    1.7152    magn:    0.0000    constr:    0.0000
     atom:    5    charge:    1.7168    magn:   -0.0000    constr:    0.0000
     atom:    6    charge:    1.7146    magn:    0.0000    constr:    0.0000
     atom:    7    charge:    1.7168    magn:   -0.0000    constr:    0.0000
     atom:    8    charge:    1.7153    magn:   -0.0000    constr:    0.0000
     atom:    9    charge:    1.7155    magn:    0.0000    constr:    0.0000
     atom:   10    charge:    1.7177    magn:   -0.0000    constr:    0.0000
     atom:   11    charge:    1.7156    magn:   -0.0000    constr:    0.0000
     atom:   12    charge:    1.7177    magn:    0.0000    constr:    0.0000
     atom:   13    charge:    1.7156    magn:   -0.0000    constr:    0.0000
     atom:   14    charge:    1.7176    magn:    0.0000    constr:    0.0000
     atom:   15    charge:    1.7117    magn:    0.0000    constr:    0.0000
     atom:   16    charge:    1.7113    magn:    0.0000    constr:    0.0000
     atom:   17    charge:    1.7207    magn:    0.0000    constr:    0.0000
     atom:   18    charge:    1.7114    magn:   -0.0000    constr:    0.0000
     atom:   19    charge:    1.7118    magn:   -0.0000    constr:    0.0000
     atom:   20    charge:    1.7176    magn:    0.0000    constr:    0.0000
     atom:   21    charge:    1.7156    magn:   -0.0000    constr:    0.0000
     atom:   22    charge:    1.7177    magn:    0.0000    constr:    0.0000
     atom:   23    charge:    1.7155    magn:   -0.0000    constr:    0.0000
     atom:   24    charge:    1.7152    magn:   -0.0000    constr:    0.0000
     atom:   25    charge:    1.7118    magn:    0.0000    constr:    0.0000
     atom:   26    charge:    1.7113    magn:   -0.0000    constr:    0.0000
     atom:   27    charge:    1.8186    magn:   -0.0000    constr:    0.0000
     atom:   28    charge:   13.4057    magn:    0.0000    constr:    0.0000
     atom:   29    charge:    1.8187    magn:    0.0000    constr:    0.0000
     atom:   30    charge:    1.7113    magn:   -0.0000    constr:    0.0000
     atom:   31    charge:    1.7118    magn:   -0.0000    constr:    0.0000
     atom:   32    charge:    1.7152    magn:    0.0000    constr:    0.0000
     atom:   33    charge:    1.7168    magn:    0.0000    constr:    0.0000
     atom:   34    charge:    1.7154    magn:    0.0000    constr:    0.0000
     atom:   35    charge:    1.7168    magn:    0.0000    constr:    0.0000
     atom:   36    charge:    1.7146    magn:   -0.0000    constr:    0.0000
     atom:   37    charge:    1.7207    magn:   -0.0000    constr:    0.0000
     atom:   38    charge:    1.7114    magn:   -0.0000    constr:    0.0000
     atom:   39    charge:    1.8187    magn:   -0.0000    constr:    0.0000
     atom:   40    charge:    1.7113    magn:    0.0000    constr:    0.0000
     atom:   41    charge:    1.7206    magn:    0.0000    constr:    0.0000
     atom:   42    charge:    1.7146    magn:    0.0000    constr:    0.0000
     atom:   43    charge:    1.7168    magn:   -0.0000    constr:    0.0000
     atom:   44    charge:    1.7154    magn:    0.0000    constr:    0.0000
     atom:   45    charge:    1.7213    magn:   -0.0000    constr:    0.0000
     atom:   46    charge:    1.7154    magn:    0.0000    constr:    0.0000
     atom:   47    charge:    1.7168    magn:    0.0000    constr:    0.0000
     atom:   48    charge:    1.7153    magn:    0.0000    constr:    0.0000
     atom:   49    charge:    1.7118    magn:    0.0000    constr:    0.0000
     atom:   50    charge:    1.7176    magn:    0.0000    constr:    0.0000
     atom:   51    charge:    1.7118    magn:    0.0000    constr:    0.0000
     atom:   52    charge:    1.7152    magn:    0.0000    constr:    0.0000

     total cpu time spent up to now is    12523.7 secs

     End of self-consistent calculation

 ------ SPIN UP ------------


          k = 0.0000 0.0000 0.0000 ( 87777 PWs)   bands (ev):

  -107.8771 -69.0478 -69.0477 -66.9577 -19.8128 -18.9938 -18.9918 -18.8762
   -18.8757 -18.7911 -18.7197 -17.1487 -17.1483 -17.1155 -17.0658 -17.0649
   -16.7395 -16.2982 -16.2979 -16.1524 -16.1520 -16.1392 -15.6546 -14.2941
   -14.2940 -14.1358 -14.0038 -14.0035 -13.4997 -13.1152 -13.1150 -13.0637
   -12.8866 -12.8861 -12.4862 -12.0591 -12.0588 -11.6987 -11.5541 -11.5540
   -10.9181 -10.4111 -10.4107  -9.5610  -9.3520  -9.3519  -9.2137  -9.1986
    -9.1986  -9.1838  -8.9374  -8.9373  -8.5774  -8.5768  -8.4382  -7.9401
    -7.8877  -7.8214  -7.8177  -7.6481  -7.5267  -7.5266  -7.4332  -7.4332
    -6.8923  -6.8311  -6.8105  -6.8097  -6.7356  -6.6055  -6.6052  -6.5425
    -6.5379  -6.5374  -6.5070  -6.4679  -6.4086  -6.4066  -6.3269  -6.2725
    -6.2722  -5.5331  -5.5328  -5.0169  -4.9366  -4.8282  -4.8279  -4.7461
    -4.7048  -4.7042  -4.4062  -4.3857  -4.3850  -3.8245  -3.8239  -3.7525
    -3.7455  -3.7453  -3.6439  -3.4050  -3.4032  -3.3197  -1.8792  -1.7945
    -1.7942  -1.5753  -1.5748  -1.1330   0.1297   0.1335   0.9168   0.9741
     0.9749   1.2247   1.2267   1.5693   2.5021   2.8130   2.8147   2.8660
     3.0430   3.0528   3.3993   3.4880   3.6058   3.7380   3.7409   3.7671
     3.9359   4.2728

     occupation numbers 
     1.0000   1.0000   1.0000   1.0000   1.0000   1.0000   1.0000   1.0000
     1.0000   1.0000   1.0000   1.0000   1.0000   1.0000   1.0000   1.0000
     1.0000   1.0000   1.0000   1.0000   1.0000   1.0000   1.0000   1.0000
     1.0000   1.0000   1.0000   1.0000   1.0000   1.0000   1.0000   1.0000
     1.0000   1.0000   1.0000   1.0000   1.0000   1.0000   1.0000   1.0000
     1.0000   1.0000   1.0000   1.0000   1.0000   1.0000   1.0000   1.0000
     1.0000   1.0000   1.0000   1.0000   1.0000   1.0000   1.0000   1.0000
     1.0000   1.0000   1.0000   1.0000   1.0000   1.0000   1.0000   1.0000
     1.0000   1.0000   1.0000   1.0000   1.0000   1.0000   1.0000   1.0000
     1.0000   1.0000   1.0000   1.0000   1.0000   1.0000   1.0000   1.0000
     1.0000   1.0000   1.0000   1.0000   1.0000   1.0000   1.0000   1.0000
     1.0000   1.0000   1.0000   1.0000   1.0000   1.0000   1.0000   1.0000
     1.0000   1.0000   1.0000   1.0000   1.0000   1.0000   1.0000   1.0000
     1.0000   1.0000   1.0000   1.0000   0.0000   0.0000   0.0000   0.0000
     0.0000   0.0000   0.0000   0.0000   0.0000   0.0000   0.0000   0.0000
     0.0000   0.0000   0.0000   0.0000   0.0000   0.0000   0.0000   0.0000
     0.0000   0.0000

 ------ SPIN DOWN ----------


          k = 0.0000 0.0000 0.0000 ( 87777 PWs)   bands (ev):

  -107.8771 -69.0478 -69.0477 -66.9576 -19.8128 -18.9938 -18.9918 -18.8762
   -18.8757 -18.7911 -18.7197 -17.1487 -17.1483 -17.1155 -17.0658 -17.0649
   -16.7395 -16.2982 -16.2979 -16.1524 -16.1520 -16.1392 -15.6546 -14.2941
   -14.2940 -14.1358 -14.0038 -14.0035 -13.4997 -13.1152 -13.1150 -13.0637
   -12.8866 -12.8861 -12.4862 -12.0591 -12.0588 -11.6987 -11.5541 -11.5540
   -10.9181 -10.4111 -10.4107  -9.5610  -9.3520  -9.3519  -9.2137  -9.1986
    -9.1986  -9.1838  -8.9374  -8.9372  -8.5774  -8.5768  -8.4382  -7.9401
    -7.8877  -7.8214  -7.8177  -7.6481  -7.5268  -7.5266  -7.4332  -7.4332
    -6.8923  -6.8311  -6.8105  -6.8097  -6.7356  -6.6055  -6.6052  -6.5425
    -6.5379  -6.5374  -6.5070  -6.4679  -6.4086  -6.4066  -6.3269  -6.2725
    -6.2722  -5.5331  -5.5328  -5.0169  -4.9366  -4.8282  -4.8279  -4.7461
    -4.7048  -4.7042  -4.4062  -4.3857  -4.3850  -3.8245  -3.8239  -3.7525
    -3.7455  -3.7453  -3.6439  -3.4050  -3.4032  -3.3197  -1.8792  -1.7945
    -1.7942  -1.5753  -1.5748  -1.1330   0.1297   0.1334   0.9168   0.9741
     0.9749   1.2247   1.2267   1.5693   2.5019   2.8130   2.8147   2.8660
     3.0430   3.0528   3.3992   3.4880   3.6056   3.7379   3.7408   3.7669
     3.9358   4.2727

     occupation numbers 
     1.0000   1.0000   1.0000   1.0000   1.0000   1.0000   1.0000   1.0000
     1.0000   1.0000   1.0000   1.0000   1.0000   1.0000   1.0000   1.0000
     1.0000   1.0000   1.0000   1.0000   1.0000   1.0000   1.0000   1.0000
     1.0000   1.0000   1.0000   1.0000   1.0000   1.0000   1.0000   1.0000
     1.0000   1.0000   1.0000   1.0000   1.0000   1.0000   1.0000   1.0000
     1.0000   1.0000   1.0000   1.0000   1.0000   1.0000   1.0000   1.0000
     1.0000   1.0000   1.0000   1.0000   1.0000   1.0000   1.0000   1.0000
     1.0000   1.0000   1.0000   1.0000   1.0000   1.0000   1.0000   1.0000
     1.0000   1.0000   1.0000   1.0000   1.0000   1.0000   1.0000   1.0000
     1.0000   1.0000   1.0000   1.0000   1.0000   1.0000   1.0000   1.0000
     1.0000   1.0000   1.0000   1.0000   1.0000   1.0000   1.0000   1.0000
     1.0000   1.0000   1.0000   1.0000   1.0000   1.0000   1.0000   1.0000
     1.0000   1.0000   1.0000   1.0000   1.0000   1.0000   1.0000   1.0000
     1.0000   1.0000   1.0000   1.0000   0.0000   0.0000   0.0000   0.0000
     0.0000   0.0000   0.0000   0.0000   0.0000   0.0000   0.0000   0.0000
     0.0000   0.0000   0.0000   0.0000   0.0000   0.0000   0.0000   0.0000
     0.0000   0.0000

     the Fermi energy is    -0.9595 ev

!    total energy              =    -951.88536923 Ry
     Harris-Foulkes estimate   =    -951.88536879 Ry
     estimated scf accuracy    <       0.00000069 Ry

     The total energy is the sum of the following terms:

     one-electron contribution =   -2981.08150435 Ry
     hartree contribution      =    1533.31197467 Ry
     xc contribution           =    -265.73258147 Ry
     ewald contribution        =     761.61674192 Ry
     smearing contrib. (-TS)   =       0.00000000 Ry

     total magnetization       =     0.00 Bohr mag/cell
     absolute magnetization    =     0.00 Bohr mag/cell

     convergence has been achieved in 129 iterations

     Writing output data file niquel-top-distance-3.0.save/

     init_run     :     74.49s CPU     75.73s WALL (       1 calls)
     electrons    :  12232.78s CPU  12446.98s WALL (       1 calls)

     Called by init_run:
     wfcinit      :     41.38s CPU     41.68s WALL (       1 calls)
     wfcinit:atom :      0.05s CPU      0.08s WALL (       2 calls)
     wfcinit:wfcr :     40.98s CPU     41.18s WALL (       2 calls)
     potinit      :     13.53s CPU     13.91s WALL (       1 calls)
     hinit0       :     11.17s CPU     11.20s WALL (       1 calls)

     Called by electrons:
     c_bands      :   7707.92s CPU   7749.00s WALL (     129 calls)
     sum_band     :   2620.89s CPU   2691.61s WALL (     129 calls)
     v_of_rho     :    926.23s CPU    966.43s WALL (     130 calls)
     v_h          :      9.79s CPU     10.10s WALL (     130 calls)
     v_xc         :    916.44s CPU    956.33s WALL (     130 calls)
     newd         :    900.18s CPU    961.76s WALL (     130 calls)
     mix_rho      :     61.99s CPU     62.74s WALL (     129 calls)

     Called by c_bands:
     init_us_2    :     23.24s CPU     23.32s WALL (     518 calls)
     cegterg      :   7642.54s CPU   7683.33s WALL (     258 calls)

     Called by sum_band:
     sum_band:bec :      0.21s CPU      0.21s WALL (     258 calls)
     addusdens    :   1599.27s CPU   1664.62s WALL (     129 calls)

     Called by *egterg:
     h_psi        :   4051.87s CPU   4080.36s WALL (     829 calls)
     s_psi        :   1365.04s CPU   1365.77s WALL (     829 calls)
     g_psi        :      4.27s CPU      4.28s WALL (     569 calls)
     cdiaghg      :     48.93s CPU     48.95s WALL (     827 calls)
     cegterg:over :    870.82s CPU    871.29s WALL (     569 calls)
     cegterg:upda :    511.38s CPU    514.34s WALL (     569 calls)
     cegterg:last :    408.24s CPU    408.39s WALL (     258 calls)

     Called by h_psi:
     h_psi:pot    :   4047.38s CPU   4070.90s WALL (     829 calls)
     h_psi:calbec :   1362.12s CPU   1362.76s WALL (     829 calls)
     vloc_psi     :   1318.66s CPU   1341.00s WALL (     829 calls)
     add_vuspsi   :   1366.59s CPU   1367.14s WALL (     829 calls)

     General routines
     calbec       :   1988.71s CPU   1989.61s WALL (    1087 calls)
     fft          :    528.87s CPU    544.58s WALL (    9744 calls)
     ffts         :      9.34s CPU      9.70s WALL (     518 calls)
     fftw         :   1425.71s CPU   1450.09s WALL (  179456 calls)
     interpolate  :     22.02s CPU     22.59s WALL (     260 calls)

     Parallel routines
     fft_scatt_xy :    349.31s CPU    353.89s WALL (  189718 calls)
     fft_scatt_yz :    666.16s CPU    695.47s WALL (  189718 calls)

     PWSCF        :      3h25m CPU      3h28m WALL


   This run was terminated on:  21: 1:37  30Dec2022            

=------------------------------------------------------------------------------=
   JOB DONE.
=------------------------------------------------------------------------------=
