
     Program PWSCF v.6.4.1 starts on 31Dec2022 at  3:50:53 

     This program is part of the open-source Quantum ESPRESSO suite
     for quantum simulation of materials; please cite
         "P. Giannozzi et al., J. Phys.:Condens. Matter 21 395502 (2009);
         "P. Giannozzi et al., J. Phys.:Condens. Matter 29 465901 (2017);
          URL http://www.quantum-espresso.org", 
     in publications or presentations arising from this work. More details at
     http://www.quantum-espresso.org/quote

     Parallel version (MPI), running on     6 processors

     MPI processes distributed on     1 nodes
     R & G space division:  proc/nbgrp/npool/nimage =       6
     Reading input from distance-2.4.in

     Current dimensions of program PWSCF are:
     Max number of different atomic species (ntypx) = 10
     Max number of k-points (npk) =  40000
     Max angular momentum in pseudopotentials (lmaxx) =  3

     IMPORTANT: XC functional enforced from input :
     Exchange-correlation      = RVV10 ( 1  4 13  4 3 0)
     Any further DFT definition will be discarded
     Please, verify this is what you really want

               file H.pbe-rrkjus.UPF: wavefunction(s)  1S renormalized

     Subspace diagonalization in iterative solution of the eigenvalue problem:
     a serial algorithm will be used


     Parallelization info
     --------------------
     sticks:   dense  smooth     PW     G-vecs:    dense   smooth      PW
     Min        3051    1746    432               270999   117096   14629
     Max        3053    1747    437               271001   117099   14630
     Sum       18313   10477   2611              1626001   702581   87777



     bravais-lattice index     =            4
     lattice parameter (alat)  =      23.2937  a.u.
     unit-cell volume          =    8879.8548 (a.u.)^3
     number of atoms/cell      =           52
     number of atomic types    =            3
     number of electrons       =       216.00
     number of Kohn-Sham states=          130
     kinetic-energy cutoff     =      70.0000  Ry
     charge density cutoff     =     490.0000  Ry
     convergence threshold     =      1.0E-06
     mixing beta               =       0.7000
     number of iterations used =            8  plain     mixing
     Exchange-correlation      = RVV10 ( 1  4 13  4 3 0)

     celldm(1)=  23.293684  celldm(2)=   0.000000  celldm(3)=   0.811261
     celldm(4)=   0.000000  celldm(5)=   0.000000  celldm(6)=   0.000000

     crystal axes: (cart. coord. in units of alat)
               a(1) = (   1.000000   0.000000   0.000000 )  
               a(2) = (  -0.500000   0.866025   0.000000 )  
               a(3) = (   0.000000   0.000000   0.811261 )  

     reciprocal axes: (cart. coord. in units 2 pi/alat)
               b(1) = (  1.000000  0.577350 -0.000000 )  
               b(2) = (  0.000000  1.154701  0.000000 )  
               b(3) = (  0.000000 -0.000000  1.232649 )  


     PseudoPot. # 1 for H  read from file:
     /home/cristian/Escritorio/Proyecto_Grafeno/pseudopotenciales/H.pbe-rrkjus.UPF
     MD5 check sum: 7cc9d459525c9a0585f487a71c3c9563
     Pseudo is Ultrasoft, Zval =  1.0
     Generated by new atomic code, or converted to UPF format
     Using radial grid of 1061 points,  2 beta functions with: 
                l(1) =   0
                l(2) =   0
     Q(r) pseudized with 0 coefficients 


     PseudoPot. # 2 for C  read from file:
     /home/cristian/Escritorio/Proyecto_Grafeno/pseudopotenciales/C.pbe-n-rrkjus_psl.1.0.0.UPF
     MD5 check sum: 1fdd950c42eb37d8afe3dd2f8d12311e
     Pseudo is Ultrasoft + core correction, Zval =  4.0
     Generated using "atomic" code by A. Dal Corso v.6.3MaX
     Using radial grid of 1073 points,  4 beta functions with: 
                l(1) =   0
                l(2) =   0
                l(3) =   1
                l(4) =   1
     Q(r) pseudized with 0 coefficients 


     PseudoPot. # 3 for Ni read from file:
     /home/cristian/Escritorio/Proyecto_Grafeno/pseudopotenciales/Ni.pbe-spn-rrkjus_psl.1.0.0.UPF
     MD5 check sum: 8b3fc9aac6dafe35f580d41bb18c3945
     Pseudo is Ultrasoft + core correction, Zval = 18.0
     Generated using "atomic" code by A. Dal Corso v.6.3
     Using radial grid of 1195 points,  6 beta functions with: 
                l(1) =   0
                l(2) =   0
                l(3) =   1
                l(4) =   1
                l(5) =   2
                l(6) =   2
     Q(r) pseudized with 0 coefficients 


     vdW kernel table read from file rVV10_kernel_table
     MD5 check sum: b8e2538accc0c0b3206b45ba4daaba6c

     atomic species   valence    mass     pseudopotential
        H              1.00     1.00794     H ( 1.00)
        C              4.00    12.01070     C ( 1.00)
        Ni            18.00    58.69340     Ni( 1.00)

     Starting magnetic structure 
     atomic species   magnetization
        H            0.500
        C            0.300
        Ni           0.800

     No symmetry found


                                    s                        frac. trans.

      isym =  1     identity                                     

 cryst.   s( 1) = (     1          0          0      )
                  (     0          1          0      )
                  (     0          0          1      )

 cart.    s( 1) = (  1.0000000  0.0000000  0.0000000 )
                  (  0.0000000  1.0000000  0.0000000 )
                  (  0.0000000  0.0000000  1.0000000 )


     point group C_1 (1)    
     there are  1 classes
     the character table:

       E    
A      1.00

     the symmetry operations in each class and the name of the first element:

     E        1
          identity                                               

   Cartesian axes

     site n.     atom                  positions (alat units)
         1           H   tau(   1) = (   0.1694937   0.4618802   0.1947027  )
         2           H   tau(   2) = (   0.2305063   0.4618802   0.1947027  )
         3           C   tau(   3) = (   0.0000000   0.0000000   0.0000000  )
         4           C   tau(   4) = (   0.0000000   0.1154701   0.0000000  )
         5           C   tau(   5) = (  -0.1000000   0.1732051   0.0000000  )
         6           C   tau(   6) = (  -0.1000000   0.2886751   0.0000000  )
         7           C   tau(   7) = (  -0.2000000   0.3464102   0.0000000  )
         8           C   tau(   8) = (  -0.2000000   0.4618802   0.0000000  )
         9           C   tau(   9) = (  -0.3000000   0.5196152   0.0000000  )
        10           C   tau(  10) = (  -0.3000000   0.6350853   0.0000000  )
        11           C   tau(  11) = (  -0.4000000   0.6928203   0.0000000  )
        12           C   tau(  12) = (  -0.4000000   0.8082904   0.0000000  )
        13           C   tau(  13) = (   0.2000000   0.0000000   0.0000000  )
        14           C   tau(  14) = (   0.2000000   0.1154701   0.0000000  )
        15           C   tau(  15) = (   0.1000000   0.1732051   0.0000000  )
        16           C   tau(  16) = (   0.1000000   0.2886751   0.0000000  )
        17           C   tau(  17) = (   0.0000000   0.3464102   0.0000000  )
        18           C   tau(  18) = (   0.0000000   0.4618802   0.0000000  )
        19           C   tau(  19) = (  -0.1000000   0.5196152   0.0000000  )
        20           C   tau(  20) = (  -0.1000000   0.6350853   0.0000000  )
        21           C   tau(  21) = (  -0.2000000   0.6928203   0.0000000  )
        22           C   tau(  22) = (  -0.2000000   0.8082904   0.0000000  )
        23           C   tau(  23) = (   0.4000000   0.0000000   0.0000000  )
        24           C   tau(  24) = (   0.4000000   0.1154701   0.0000000  )
        25           C   tau(  25) = (   0.3000000   0.1732051   0.0000000  )
        26           C   tau(  26) = (   0.3000000   0.2886751   0.0000000  )
        27           C   tau(  27) = (   0.2000000   0.3464102   0.0000000  )
        28           Ni  tau(  28) = (   0.2000000   0.4618802   0.0000000  )
        29           C   tau(  29) = (   0.1000000   0.5196152   0.0000000  )
        30           C   tau(  30) = (   0.1000000   0.6350853   0.0000000  )
        31           C   tau(  31) = (   0.0000000   0.6928203   0.0000000  )
        32           C   tau(  32) = (   0.0000000   0.8082904   0.0000000  )
        33           C   tau(  33) = (   0.6000000   0.0000000   0.0000000  )
        34           C   tau(  34) = (   0.6000000   0.1154701   0.0000000  )
        35           C   tau(  35) = (   0.5000000   0.1732051   0.0000000  )
        36           C   tau(  36) = (   0.5000000   0.2886751   0.0000000  )
        37           C   tau(  37) = (   0.4000000   0.3464102   0.0000000  )
        38           C   tau(  38) = (   0.4000000   0.4618802   0.0000000  )
        39           C   tau(  39) = (   0.3000000   0.5196152   0.0000000  )
        40           C   tau(  40) = (   0.3000000   0.6350853   0.0000000  )
        41           C   tau(  41) = (   0.2000000   0.6928203   0.0000000  )
        42           C   tau(  42) = (   0.2000000   0.8082904   0.0000000  )
        43           C   tau(  43) = (   0.8000000   0.0000000   0.0000000  )
        44           C   tau(  44) = (   0.8000000   0.1154701   0.0000000  )
        45           C   tau(  45) = (   0.7000000   0.1732051   0.0000000  )
        46           C   tau(  46) = (   0.7000000   0.2886751   0.0000000  )
        47           C   tau(  47) = (   0.6000000   0.3464102   0.0000000  )
        48           C   tau(  48) = (   0.6000000   0.4618802   0.0000000  )
        49           C   tau(  49) = (   0.5000000   0.5196152   0.0000000  )
        50           C   tau(  50) = (   0.5000000   0.6350853   0.0000000  )
        51           C   tau(  51) = (   0.4000000   0.6928203   0.0000000  )
        52           C   tau(  52) = (   0.4000000   0.8082904   0.0000000  )

   Crystallographic axes

     site n.     atom                  positions (cryst. coord.)
         1           H   tau(   1) = (  0.4361603  0.5333333  0.2400000  )
         2           H   tau(   2) = (  0.4971730  0.5333333  0.2400000  )
         3           C   tau(   3) = (  0.0000000  0.0000000  0.0000000  )
         4           C   tau(   4) = (  0.0666667  0.1333333  0.0000000  )
         5           C   tau(   5) = (  0.0000000  0.2000000  0.0000000  )
         6           C   tau(   6) = (  0.0666667  0.3333333  0.0000000  )
         7           C   tau(   7) = (  0.0000000  0.4000000  0.0000000  )
         8           C   tau(   8) = (  0.0666667  0.5333333  0.0000000  )
         9           C   tau(   9) = (  0.0000000  0.6000000  0.0000000  )
        10           C   tau(  10) = (  0.0666667  0.7333333  0.0000000  )
        11           C   tau(  11) = (  0.0000000  0.8000000  0.0000000  )
        12           C   tau(  12) = (  0.0666667  0.9333333  0.0000000  )
        13           C   tau(  13) = (  0.2000000  0.0000000  0.0000000  )
        14           C   tau(  14) = (  0.2666667  0.1333333  0.0000000  )
        15           C   tau(  15) = (  0.2000000  0.2000000  0.0000000  )
        16           C   tau(  16) = (  0.2666667  0.3333333  0.0000000  )
        17           C   tau(  17) = (  0.2000000  0.4000000  0.0000000  )
        18           C   tau(  18) = (  0.2666667  0.5333333  0.0000000  )
        19           C   tau(  19) = (  0.2000000  0.6000000  0.0000000  )
        20           C   tau(  20) = (  0.2666667  0.7333333  0.0000000  )
        21           C   tau(  21) = (  0.2000000  0.8000000  0.0000000  )
        22           C   tau(  22) = (  0.2666667  0.9333333  0.0000000  )
        23           C   tau(  23) = (  0.4000000  0.0000000  0.0000000  )
        24           C   tau(  24) = (  0.4666667  0.1333333  0.0000000  )
        25           C   tau(  25) = (  0.4000000  0.2000000  0.0000000  )
        26           C   tau(  26) = (  0.4666667  0.3333333  0.0000000  )
        27           C   tau(  27) = (  0.4000000  0.4000000  0.0000000  )
        28           Ni  tau(  28) = (  0.4666667  0.5333333  0.0000000  )
        29           C   tau(  29) = (  0.4000000  0.6000000  0.0000000  )
        30           C   tau(  30) = (  0.4666667  0.7333333  0.0000000  )
        31           C   tau(  31) = (  0.4000000  0.8000000  0.0000000  )
        32           C   tau(  32) = (  0.4666667  0.9333333  0.0000000  )
        33           C   tau(  33) = (  0.6000000  0.0000000  0.0000000  )
        34           C   tau(  34) = (  0.6666667  0.1333333  0.0000000  )
        35           C   tau(  35) = (  0.6000000  0.2000000  0.0000000  )
        36           C   tau(  36) = (  0.6666667  0.3333333  0.0000000  )
        37           C   tau(  37) = (  0.6000000  0.4000000  0.0000000  )
        38           C   tau(  38) = (  0.6666667  0.5333333  0.0000000  )
        39           C   tau(  39) = (  0.6000000  0.6000000  0.0000000  )
        40           C   tau(  40) = (  0.6666667  0.7333333  0.0000000  )
        41           C   tau(  41) = (  0.6000000  0.8000000  0.0000000  )
        42           C   tau(  42) = (  0.6666667  0.9333333  0.0000000  )
        43           C   tau(  43) = (  0.8000000  0.0000000  0.0000000  )
        44           C   tau(  44) = (  0.8666667  0.1333333  0.0000000  )
        45           C   tau(  45) = (  0.8000000  0.2000000  0.0000000  )
        46           C   tau(  46) = (  0.8666667  0.3333333  0.0000000  )
        47           C   tau(  47) = (  0.8000000  0.4000000  0.0000000  )
        48           C   tau(  48) = (  0.8666667  0.5333333  0.0000000  )
        49           C   tau(  49) = (  0.8000000  0.6000000  0.0000000  )
        50           C   tau(  50) = (  0.8666667  0.7333333  0.0000000  )
        51           C   tau(  51) = (  0.8000000  0.8000000  0.0000000  )
        52           C   tau(  52) = (  0.8666667  0.9333333  0.0000000  )

     number of k points=     1  Marzari-Vanderbilt smearing, width (Ry)=  0.0010
                       cart. coord. in units 2pi/alat
        k(    1) = (   0.0000000   0.0000000   0.0000000), wk =   1.0000000

                       cryst. coord.
        k(    1) = (   0.0000000   0.0000000   0.0000000), wk =   1.0000000

     Dense  grid:  1626001 G-vectors     FFT dimensions: ( 180, 180, 135)

     Smooth grid:   702581 G-vectors     FFT dimensions: ( 125, 125, 108)

     Dynamical RAM for                 wfc:      29.03 MB

     Dynamical RAM for     wfc (w. buffer):      87.10 MB

     Dynamical RAM for           str. fact:      12.41 MB

     Dynamical RAM for           local pot:       0.00 MB

     Dynamical RAM for          nlocal pot:      92.46 MB

     Dynamical RAM for                qrad:      19.73 MB

     Dynamical RAM for          rho,v,vnew:      58.92 MB

     Dynamical RAM for               rhoin:      19.64 MB

     Dynamical RAM for            rho*nmix:     132.32 MB

     Dynamical RAM for           G-vectors:      16.40 MB

     Dynamical RAM for          h,s,v(r/c):      12.38 MB

     Dynamical RAM for          <psi|beta>:       0.82 MB

     Dynamical RAM for                 psi:     116.14 MB

     Dynamical RAM for                hpsi:     116.14 MB

     Dynamical RAM for                spsi:     116.14 MB

     Dynamical RAM for      wfcinit/wfcrot:      93.90 MB

     Dynamical RAM for           addusdens:     975.89 MB

     Estimated static dynamical RAM per process >     489.64 MB

     Estimated max dynamical RAM per process >       1.43 GB

     Estimated total dynamical RAM >       8.59 GB
     Generating pointlists ...
     new r_m :   0.0252 (alat units)  0.5862 (a.u.) for type    1
     new r_m :   0.0476 (alat units)  1.1095 (a.u.) for type    2
     new r_m :   0.0476 (alat units)  1.1095 (a.u.) for type    3

     Check: negative core charge=   -0.000002

     Initial potential from superposition of free atoms

     starting charge  215.80530, renormalised to  216.00000

     negative rho (up, down):  1.587E-04 1.757E-02


---------------------------------------------------------------------------------
Carrying out rVV10 run using the following parameters:
Nqs =      20    Nr_points =    1024   r_max =   100.000
b_value =  6.30000    beta =  0.00901
     q_mesh =  0.00010000  0.00030000  0.00058939  0.00100810
               0.00161396  0.00249058  0.00375900  0.00559430
               0.00824984  0.01209221  0.01765183  0.02569619
               0.03733578  0.05417739  0.07854596  0.11380545
               0.16482331  0.23864234  0.34545298  0.50000000

Gradients computed in Reciprocal space

---------------------------------------------------------------------------------


     Starting wfcs are  208 randomized atomic wfcs

     total cpu time spent up to now is       76.2 secs

     Self-consistent Calculation

     iteration #  1     ecut=    70.00 Ry     beta= 0.70
     Davidson diagonalization with overlap
     ethr =  1.00E-02,  avg # of iterations =  7.5

     negative rho (up, down):  3.119E-04 1.515E-02

     total cpu time spent up to now is      207.8 secs

     total energy              =    -947.02026301 Ry
     Harris-Foulkes estimate   =    -949.63457913 Ry
     estimated scf accuracy    <      13.78979683 Ry

     total magnetization       =     6.00 Bohr mag/cell
     absolute magnetization    =     6.74 Bohr mag/cell

     iteration #  2     ecut=    70.00 Ry     beta= 0.70
     Davidson diagonalization with overlap
     ethr =  6.38E-03,  avg # of iterations =  3.0

     negative rho (up, down):  8.019E-03 2.923E-01

     total cpu time spent up to now is      322.0 secs

     total energy              =    -949.78357353 Ry
     Harris-Foulkes estimate   =    -956.02977085 Ry
     estimated scf accuracy    <      34.18675598 Ry

     total magnetization       =     4.00 Bohr mag/cell
     absolute magnetization    =     8.00 Bohr mag/cell

     iteration #  3     ecut=    70.00 Ry     beta= 0.70
     Davidson diagonalization with overlap
     ethr =  6.38E-03,  avg # of iterations =  3.5

     negative rho (up, down):  4.998E-02 5.384E-01

     total cpu time spent up to now is      431.3 secs

     total energy              =    -951.50742918 Ry
     Harris-Foulkes estimate   =    -962.34062216 Ry
     estimated scf accuracy    <     595.84000652 Ry

     total magnetization       =     0.00 Bohr mag/cell
     absolute magnetization    =    35.34 Bohr mag/cell

     iteration #  4     ecut=    70.00 Ry     beta= 0.70
     Davidson diagonalization with overlap
     ethr =  6.38E-03,  avg # of iterations =  4.0

     negative rho (up, down):  1.490E-02 5.130E-01

     total cpu time spent up to now is      533.4 secs

     total energy              =    -943.13858363 Ry
     Harris-Foulkes estimate   =    -954.46282348 Ry
     estimated scf accuracy    <     146.54950872 Ry

     total magnetization       =     4.02 Bohr mag/cell
     absolute magnetization    =    19.67 Bohr mag/cell

     iteration #  5     ecut=    70.00 Ry     beta= 0.70
     Davidson diagonalization with overlap
     ethr =  6.38E-03,  avg # of iterations =  3.5

     negative rho (up, down):  1.822E-02 3.973E-01

     total cpu time spent up to now is      661.6 secs

     total energy              =    -955.58680522 Ry
     Harris-Foulkes estimate   =    -954.08424155 Ry
     estimated scf accuracy    <     123.68775950 Ry

     total magnetization       =     4.00 Bohr mag/cell
     absolute magnetization    =    19.00 Bohr mag/cell

     iteration #  6     ecut=    70.00 Ry     beta= 0.70
     Davidson diagonalization with overlap
     ethr =  6.38E-03,  avg # of iterations =  2.5

     negative rho (up, down):  7.009E-02 4.775E-01

     total cpu time spent up to now is      756.2 secs

     total energy              =    -946.02005378 Ry
     Harris-Foulkes estimate   =    -957.01046056 Ry
     estimated scf accuracy    <     303.19164604 Ry

     total magnetization       =     4.00 Bohr mag/cell
     absolute magnetization    =    28.42 Bohr mag/cell

     iteration #  7     ecut=    70.00 Ry     beta= 0.70
     Davidson diagonalization with overlap
     ethr =  6.38E-03,  avg # of iterations =  3.0

     negative rho (up, down):  5.571E-02 3.974E-01

     total cpu time spent up to now is      863.3 secs

     total energy              =    -952.09351509 Ry
     Harris-Foulkes estimate   =    -951.69848304 Ry
     estimated scf accuracy    <      17.51131797 Ry

     total magnetization       =     0.00 Bohr mag/cell
     absolute magnetization    =     5.91 Bohr mag/cell

     iteration #  8     ecut=    70.00 Ry     beta= 0.70
     Davidson diagonalization with overlap
     ethr =  6.38E-03,  avg # of iterations =  2.5

     negative rho (up, down):  4.731E-02 4.628E-01

     total cpu time spent up to now is      962.1 secs

     total energy              =    -950.23287508 Ry
     Harris-Foulkes estimate   =    -953.90980433 Ry
     estimated scf accuracy    <     151.29722377 Ry

     total magnetization       =    -0.00 Bohr mag/cell
     absolute magnetization    =    18.96 Bohr mag/cell

     iteration #  9     ecut=    70.00 Ry     beta= 0.70
     Davidson diagonalization with overlap
     ethr =  6.38E-03,  avg # of iterations =  2.0

     negative rho (up, down):  5.095E-02 3.580E-01

     total cpu time spent up to now is     1057.3 secs

     total energy              =    -951.44941772 Ry
     Harris-Foulkes estimate   =    -951.75159056 Ry
     estimated scf accuracy    <      13.13355892 Ry

     total magnetization       =     0.04 Bohr mag/cell
     absolute magnetization    =     5.30 Bohr mag/cell

     iteration # 10     ecut=    70.00 Ry     beta= 0.70
     Davidson diagonalization with overlap
     ethr =  6.08E-03,  avg # of iterations =  2.0

     negative rho (up, down):  1.564E-02 3.607E-01

     total cpu time spent up to now is     1148.9 secs

     total energy              =    -951.67607635 Ry
     Harris-Foulkes estimate   =    -951.83220999 Ry
     estimated scf accuracy    <       3.81134816 Ry

     total magnetization       =    -0.00 Bohr mag/cell
     absolute magnetization    =     2.82 Bohr mag/cell

     iteration # 11     ecut=    70.00 Ry     beta= 0.70
     Davidson diagonalization with overlap
     ethr =  1.76E-03,  avg # of iterations =  2.0

     negative rho (up, down):  3.384E-02 1.401E-01

     total cpu time spent up to now is     1242.5 secs

     total energy              =    -951.78177937 Ry
     Harris-Foulkes estimate   =    -951.88421867 Ry
     estimated scf accuracy    <       2.70260149 Ry

     total magnetization       =     0.00 Bohr mag/cell
     absolute magnetization    =     0.86 Bohr mag/cell

     iteration # 12     ecut=    70.00 Ry     beta= 0.70
     Davidson diagonalization with overlap
     ethr =  1.25E-03,  avg # of iterations =  2.0

     negative rho (up, down):  3.243E-03 2.726E-01

     total cpu time spent up to now is     1334.3 secs

     total energy              =    -951.77484151 Ry
     Harris-Foulkes estimate   =    -951.88369269 Ry
     estimated scf accuracy    <       0.75266698 Ry

     total magnetization       =     0.00 Bohr mag/cell
     absolute magnetization    =     0.99 Bohr mag/cell

     iteration # 13     ecut=    70.00 Ry     beta= 0.70
     Davidson diagonalization with overlap
     ethr =  3.48E-04,  avg # of iterations =  6.0

     negative rho (up, down):  8.354E-03 2.969E-01

     total cpu time spent up to now is     1435.1 secs

     total energy              =    -951.79119669 Ry
     Harris-Foulkes estimate   =    -951.90837982 Ry
     estimated scf accuracy    <       1.44006744 Ry

     total magnetization       =     0.00 Bohr mag/cell
     absolute magnetization    =     1.71 Bohr mag/cell

     iteration # 14     ecut=    70.00 Ry     beta= 0.70
     Davidson diagonalization with overlap
     ethr =  3.48E-04,  avg # of iterations =  2.0

     negative rho (up, down):  6.997E-03 2.325E-01

     total cpu time spent up to now is     1528.6 secs

     total energy              =    -951.85438410 Ry
     Harris-Foulkes estimate   =    -951.86347315 Ry
     estimated scf accuracy    <       0.25952302 Ry

     total magnetization       =    -0.00 Bohr mag/cell
     absolute magnetization    =     0.52 Bohr mag/cell

     iteration # 15     ecut=    70.00 Ry     beta= 0.70
     Davidson diagonalization with overlap
     ethr =  1.20E-04,  avg # of iterations =  2.5

     negative rho (up, down):  1.887E-02 2.610E-01

     total cpu time spent up to now is     1626.6 secs

     total energy              =    -951.85952182 Ry
     Harris-Foulkes estimate   =    -951.89948269 Ry
     estimated scf accuracy    <       1.69766144 Ry

     total magnetization       =    -0.00 Bohr mag/cell
     absolute magnetization    =     1.59 Bohr mag/cell

     iteration # 16     ecut=    70.00 Ry     beta= 0.70
     Davidson diagonalization with overlap
     ethr =  1.20E-04,  avg # of iterations =  2.5

     negative rho (up, down):  5.661E-03 3.588E-01

     total cpu time spent up to now is     1724.9 secs

     total energy              =    -951.81598754 Ry
     Harris-Foulkes estimate   =    -951.89422644 Ry
     estimated scf accuracy    <       2.44993008 Ry

     total magnetization       =    -0.00 Bohr mag/cell
     absolute magnetization    =     2.43 Bohr mag/cell

     iteration # 17     ecut=    70.00 Ry     beta= 0.70
     Davidson diagonalization with overlap
     ethr =  1.20E-04,  avg # of iterations =  2.0

     negative rho (up, down):  5.165E-03 2.910E-01

     total cpu time spent up to now is     1824.1 secs

     total energy              =    -951.87403542 Ry
     Harris-Foulkes estimate   =    -951.85296482 Ry
     estimated scf accuracy    <       0.25701533 Ry

     total magnetization       =     0.00 Bohr mag/cell
     absolute magnetization    =     0.78 Bohr mag/cell

     iteration # 18     ecut=    70.00 Ry     beta= 0.70
     Davidson diagonalization with overlap
     ethr =  1.19E-04,  avg # of iterations =  2.0

     negative rho (up, down):  7.371E-03 3.523E-01

     total cpu time spent up to now is     1922.9 secs

     total energy              =    -951.89152203 Ry
     Harris-Foulkes estimate   =    -951.91355537 Ry
     estimated scf accuracy    <       3.24000824 Ry

     total magnetization       =    -0.00 Bohr mag/cell
     absolute magnetization    =     2.77 Bohr mag/cell

     iteration # 19     ecut=    70.00 Ry     beta= 0.70
     Davidson diagonalization with overlap
     ethr =  1.19E-04,  avg # of iterations =  3.0

     negative rho (up, down):  1.849E-02 3.774E-01

     total cpu time spent up to now is     2026.8 secs

     total energy              =    -951.75603336 Ry
     Harris-Foulkes estimate   =    -952.00618911 Ry
     estimated scf accuracy    <       9.20633072 Ry

     total magnetization       =     0.00 Bohr mag/cell
     absolute magnetization    =     4.52 Bohr mag/cell

     iteration # 20     ecut=    70.00 Ry     beta= 0.70
     Davidson diagonalization with overlap
     ethr =  1.19E-04,  avg # of iterations =  3.0

     negative rho (up, down):  1.496E-02 3.162E-01

     total cpu time spent up to now is     2127.4 secs

     total energy              =    -951.82607055 Ry
     Harris-Foulkes estimate   =    -951.84167460 Ry
     estimated scf accuracy    <       0.69120327 Ry

     total magnetization       =    -0.00 Bohr mag/cell
     absolute magnetization    =     1.10 Bohr mag/cell

     iteration # 21     ecut=    70.00 Ry     beta= 0.70
     Davidson diagonalization with overlap
     ethr =  1.19E-04,  avg # of iterations =  2.0

     negative rho (up, down):  2.342E-03 2.598E-01

     total cpu time spent up to now is     2221.6 secs

     total energy              =    -951.85716991 Ry
     Harris-Foulkes estimate   =    -951.84620409 Ry
     estimated scf accuracy    <       0.01327903 Ry

     total magnetization       =    -0.00 Bohr mag/cell
     absolute magnetization    =     0.19 Bohr mag/cell

     iteration # 22     ecut=    70.00 Ry     beta= 0.70
     Davidson diagonalization with overlap
     ethr =  6.15E-06,  avg # of iterations =  6.0

     negative rho (up, down):  3.071E-03 1.477E-01

     total cpu time spent up to now is     2337.1 secs

     total energy              =    -951.85930869 Ry
     Harris-Foulkes estimate   =    -951.85947380 Ry
     estimated scf accuracy    <       0.03010608 Ry

     total magnetization       =     0.00 Bohr mag/cell
     absolute magnetization    =     0.12 Bohr mag/cell

     iteration # 23     ecut=    70.00 Ry     beta= 0.70
     Davidson diagonalization with overlap
     ethr =  6.15E-06,  avg # of iterations =  3.5

     negative rho (up, down):  1.206E-03 1.602E-01

     total cpu time spent up to now is     2436.7 secs

     total energy              =    -951.86015676 Ry
     Harris-Foulkes estimate   =    -951.86041403 Ry
     estimated scf accuracy    <       0.01266172 Ry

     total magnetization       =    -0.09 Bohr mag/cell
     absolute magnetization    =     0.25 Bohr mag/cell

     iteration # 24     ecut=    70.00 Ry     beta= 0.70
     Davidson diagonalization with overlap
     ethr =  5.86E-06,  avg # of iterations =  2.5

     negative rho (up, down):  1.224E-03 1.024E-01

     total cpu time spent up to now is     2529.9 secs

     total energy              =    -951.86089472 Ry
     Harris-Foulkes estimate   =    -951.86071925 Ry
     estimated scf accuracy    <       0.00139040 Ry

     total magnetization       =     0.00 Bohr mag/cell
     absolute magnetization    =     0.09 Bohr mag/cell

     iteration # 25     ecut=    70.00 Ry     beta= 0.70
     Davidson diagonalization with overlap
     ethr =  6.44E-07,  avg # of iterations =  2.5

     negative rho (up, down):  1.212E-03 5.536E-02

     total cpu time spent up to now is     2625.3 secs

     total energy              =    -951.86105297 Ry
     Harris-Foulkes estimate   =    -951.86102352 Ry
     estimated scf accuracy    <       0.00079140 Ry

     total magnetization       =     0.00 Bohr mag/cell
     absolute magnetization    =     0.06 Bohr mag/cell

     iteration # 26     ecut=    70.00 Ry     beta= 0.70
     Davidson diagonalization with overlap
     ethr =  3.66E-07,  avg # of iterations =  2.5

     negative rho (up, down):  1.337E-03 4.261E-02

     total cpu time spent up to now is     2722.2 secs

     total energy              =    -951.86109035 Ry
     Harris-Foulkes estimate   =    -951.86115385 Ry
     estimated scf accuracy    <       0.00205761 Ry

     total magnetization       =     0.00 Bohr mag/cell
     absolute magnetization    =     0.07 Bohr mag/cell

     iteration # 27     ecut=    70.00 Ry     beta= 0.70
     Davidson diagonalization with overlap
     ethr =  3.66E-07,  avg # of iterations =  2.5

     negative rho (up, down):  1.208E-03 7.881E-02

     total cpu time spent up to now is     2815.0 secs

     total energy              =    -951.86109897 Ry
     Harris-Foulkes estimate   =    -951.86112504 Ry
     estimated scf accuracy    <       0.00264107 Ry

     total magnetization       =    -0.00 Bohr mag/cell
     absolute magnetization    =     0.10 Bohr mag/cell

     iteration # 28     ecut=    70.00 Ry     beta= 0.70
     Davidson diagonalization with overlap
     ethr =  3.66E-07,  avg # of iterations =  2.0

     negative rho (up, down):  1.249E-03 1.557E-01

     total cpu time spent up to now is     2915.1 secs

     total energy              =    -951.86085699 Ry
     Harris-Foulkes estimate   =    -951.86133401 Ry
     estimated scf accuracy    <       0.01654087 Ry

     total magnetization       =     0.00 Bohr mag/cell
     absolute magnetization    =     0.21 Bohr mag/cell

     iteration # 29     ecut=    70.00 Ry     beta= 0.70
     Davidson diagonalization with overlap
     ethr =  3.66E-07,  avg # of iterations =  3.0

     negative rho (up, down):  1.379E-03 1.893E-01

     total cpu time spent up to now is     3021.0 secs

     total energy              =    -951.86042052 Ry
     Harris-Foulkes estimate   =    -951.86122098 Ry
     estimated scf accuracy    <       0.02472263 Ry

     total magnetization       =     0.00 Bohr mag/cell
     absolute magnetization    =     0.25 Bohr mag/cell

     iteration # 30     ecut=    70.00 Ry     beta= 0.70
     Davidson diagonalization with overlap
     ethr =  3.66E-07,  avg # of iterations =  2.5

     negative rho (up, down):  1.266E-03 1.305E-01

     total cpu time spent up to now is     3121.5 secs

     total energy              =    -951.86082535 Ry
     Harris-Foulkes estimate   =    -951.86063809 Ry
     estimated scf accuracy    <       0.00271214 Ry

     total magnetization       =    -0.00 Bohr mag/cell
     absolute magnetization    =     0.10 Bohr mag/cell

     iteration # 31     ecut=    70.00 Ry     beta= 0.70
     Davidson diagonalization with overlap
     ethr =  3.66E-07,  avg # of iterations =  2.5

     negative rho (up, down):  1.212E-03 5.873E-02

     total cpu time spent up to now is     3217.7 secs

     total energy              =    -951.86110225 Ry
     Harris-Foulkes estimate   =    -951.86089065 Ry
     estimated scf accuracy    <       0.00011578 Ry

     total magnetization       =     0.00 Bohr mag/cell
     absolute magnetization    =     0.04 Bohr mag/cell

     iteration # 32     ecut=    70.00 Ry     beta= 0.70
     Davidson diagonalization with overlap
     ethr =  5.36E-08,  avg # of iterations =  3.0

     negative rho (up, down):  1.235E-03 3.066E-02

     total cpu time spent up to now is     3317.9 secs

     total energy              =    -951.86111754 Ry
     Harris-Foulkes estimate   =    -951.86112261 Ry
     estimated scf accuracy    <       0.00051982 Ry

     total magnetization       =     0.00 Bohr mag/cell
     absolute magnetization    =     0.04 Bohr mag/cell

     iteration # 33     ecut=    70.00 Ry     beta= 0.70
     Davidson diagonalization with overlap
     ethr =  5.36E-08,  avg # of iterations =  2.0

     negative rho (up, down):  1.244E-03 1.091E-02

     total cpu time spent up to now is     3416.7 secs

     total energy              =    -951.86113143 Ry
     Harris-Foulkes estimate   =    -951.86114605 Ry
     estimated scf accuracy    <       0.00047831 Ry

     total magnetization       =    -0.00 Bohr mag/cell
     absolute magnetization    =     0.02 Bohr mag/cell

     iteration # 34     ecut=    70.00 Ry     beta= 0.70
     Davidson diagonalization with overlap
     ethr =  5.36E-08,  avg # of iterations =  3.0

     negative rho (up, down):  1.208E-03 3.655E-03

     total cpu time spent up to now is     3516.0 secs

     total energy              =    -951.86115703 Ry
     Harris-Foulkes estimate   =    -951.86114584 Ry
     estimated scf accuracy    <       0.00005965 Ry

     total magnetization       =    -0.00 Bohr mag/cell
     absolute magnetization    =     0.02 Bohr mag/cell

     iteration # 35     ecut=    70.00 Ry     beta= 0.70
     Davidson diagonalization with overlap
     ethr =  2.76E-08,  avg # of iterations =  1.5

     negative rho (up, down):  1.207E-03 2.922E-03

     total cpu time spent up to now is     3607.2 secs

     total energy              =    -951.86116083 Ry
     Harris-Foulkes estimate   =    -951.86116005 Ry
     estimated scf accuracy    <       0.00000394 Ry

     total magnetization       =    -0.00 Bohr mag/cell
     absolute magnetization    =     0.01 Bohr mag/cell

     iteration # 36     ecut=    70.00 Ry     beta= 0.70
     Davidson diagonalization with overlap
     ethr =  1.82E-09,  avg # of iterations =  3.0

     negative rho (up, down):  1.207E-03 4.533E-03

     total cpu time spent up to now is     3712.8 secs

     total energy              =    -951.86116046 Ry
     Harris-Foulkes estimate   =    -951.86116244 Ry
     estimated scf accuracy    <       0.00001590 Ry

     total magnetization       =     0.00 Bohr mag/cell
     absolute magnetization    =     0.01 Bohr mag/cell

     iteration # 37     ecut=    70.00 Ry     beta= 0.70
     Davidson diagonalization with overlap
     ethr =  1.82E-09,  avg # of iterations =  3.0

     negative rho (up, down):  1.208E-03 3.641E-03

     total cpu time spent up to now is     3815.0 secs

     total energy              =    -951.86116081 Ry
     Harris-Foulkes estimate   =    -951.86116200 Ry
     estimated scf accuracy    <       0.00001403 Ry

     total magnetization       =     0.00 Bohr mag/cell
     absolute magnetization    =     0.01 Bohr mag/cell

     iteration # 38     ecut=    70.00 Ry     beta= 0.70
     Davidson diagonalization with overlap
     ethr =  1.82E-09,  avg # of iterations =  3.0

     negative rho (up, down):  1.207E-03 1.262E-02

     total cpu time spent up to now is     3916.7 secs

     total energy              =    -951.86116004 Ry
     Harris-Foulkes estimate   =    -951.86116242 Ry
     estimated scf accuracy    <       0.00007239 Ry

     total magnetization       =    -0.00 Bohr mag/cell
     absolute magnetization    =     0.02 Bohr mag/cell

     iteration # 39     ecut=    70.00 Ry     beta= 0.70
     Davidson diagonalization with overlap
     ethr =  1.82E-09,  avg # of iterations =  3.0

     negative rho (up, down):  1.208E-03 3.168E-02

     total cpu time spent up to now is     4023.5 secs

     total energy              =    -951.86114745 Ry
     Harris-Foulkes estimate   =    -951.86116468 Ry
     estimated scf accuracy    <       0.00032249 Ry

     total magnetization       =     0.00 Bohr mag/cell
     absolute magnetization    =     0.03 Bohr mag/cell

     iteration # 40     ecut=    70.00 Ry     beta= 0.70
     Davidson diagonalization with overlap
     ethr =  1.82E-09,  avg # of iterations =  3.0

     negative rho (up, down):  1.208E-03 1.376E-02

     total cpu time spent up to now is     4127.5 secs

     total energy              =    -951.86115972 Ry
     Harris-Foulkes estimate   =    -951.86115136 Ry
     estimated scf accuracy    <       0.00002906 Ry

     total magnetization       =     0.00 Bohr mag/cell
     absolute magnetization    =     0.01 Bohr mag/cell

     iteration # 41     ecut=    70.00 Ry     beta= 0.70
     Davidson diagonalization with overlap
     ethr =  1.82E-09,  avg # of iterations =  1.5

     negative rho (up, down):  1.209E-03 1.049E-02

     total cpu time spent up to now is     4218.0 secs

     total energy              =    -951.86115997 Ry
     Harris-Foulkes estimate   =    -951.86115977 Ry
     estimated scf accuracy    <       0.00002987 Ry

     total magnetization       =     0.00 Bohr mag/cell
     absolute magnetization    =     0.01 Bohr mag/cell

     iteration # 42     ecut=    70.00 Ry     beta= 0.70
     Davidson diagonalization with overlap
     ethr =  1.82E-09,  avg # of iterations =  2.0

     negative rho (up, down):  1.208E-03 5.820E-03

     total cpu time spent up to now is     4312.3 secs

     total energy              =    -951.86116139 Ry
     Harris-Foulkes estimate   =    -951.86116029 Ry
     estimated scf accuracy    <       0.00000636 Ry

     total magnetization       =    -0.00 Bohr mag/cell
     absolute magnetization    =     0.01 Bohr mag/cell

     iteration # 43     ecut=    70.00 Ry     beta= 0.70
     Davidson diagonalization with overlap
     ethr =  1.82E-09,  avg # of iterations =  2.0

     negative rho (up, down):  1.209E-03 5.372E-03

     total cpu time spent up to now is     4406.6 secs

     total energy              =    -951.86116142 Ry
     Harris-Foulkes estimate   =    -951.86116174 Ry
     estimated scf accuracy    <       0.00001248 Ry

     total magnetization       =     0.00 Bohr mag/cell
     absolute magnetization    =     0.01 Bohr mag/cell

     iteration # 44     ecut=    70.00 Ry     beta= 0.70
     Davidson diagonalization with overlap
     ethr =  1.82E-09,  avg # of iterations =  2.0

     negative rho (up, down):  1.211E-03 5.669E-03

     total cpu time spent up to now is     4503.5 secs

     total energy              =    -951.86116045 Ry
     Harris-Foulkes estimate   =    -951.86116195 Ry
     estimated scf accuracy    <       0.00002486 Ry

     total magnetization       =    -0.00 Bohr mag/cell
     absolute magnetization    =     0.01 Bohr mag/cell

     iteration # 45     ecut=    70.00 Ry     beta= 0.70
     Davidson diagonalization with overlap
     ethr =  1.82E-09,  avg # of iterations =  2.0

     negative rho (up, down):  1.207E-03 6.264E-05

     Magnetic moment per site:
     atom:    1    charge:    0.2128    magn:    0.0000    constr:    0.0000
     atom:    2    charge:    0.2128    magn:   -0.0000    constr:    0.0000
     atom:    3    charge:    1.7155    magn:   -0.0000    constr:    0.0000
     atom:    4    charge:    1.7152    magn:    0.0000    constr:    0.0000
     atom:    5    charge:    1.7169    magn:   -0.0001    constr:    0.0000
     atom:    6    charge:    1.7146    magn:    0.0001    constr:    0.0000
     atom:    7    charge:    1.7168    magn:   -0.0001    constr:    0.0000
     atom:    8    charge:    1.7152    magn:    0.0000    constr:    0.0000
     atom:    9    charge:    1.7155    magn:    0.0000    constr:    0.0000
     atom:   10    charge:    1.7177    magn:   -0.0000    constr:    0.0000
     atom:   11    charge:    1.7156    magn:    0.0000    constr:    0.0000
     atom:   12    charge:    1.7177    magn:   -0.0000    constr:    0.0000
     atom:   13    charge:    1.7156    magn:    0.0000    constr:    0.0000
     atom:   14    charge:    1.7176    magn:    0.0000    constr:    0.0000
     atom:   15    charge:    1.7118    magn:   -0.0000    constr:    0.0000
     atom:   16    charge:    1.7113    magn:    0.0000    constr:    0.0000
     atom:   17    charge:    1.7208    magn:   -0.0000    constr:    0.0000
     atom:   18    charge:    1.7114    magn:    0.0000    constr:    0.0000
     atom:   19    charge:    1.7118    magn:   -0.0000    constr:    0.0000
     atom:   20    charge:    1.7176    magn:   -0.0000    constr:    0.0000
     atom:   21    charge:    1.7156    magn:    0.0000    constr:    0.0000
     atom:   22    charge:    1.7177    magn:   -0.0000    constr:    0.0000
     atom:   23    charge:    1.7155    magn:   -0.0000    constr:    0.0000
     atom:   24    charge:    1.7152    magn:    0.0000    constr:    0.0000
     atom:   25    charge:    1.7118    magn:   -0.0000    constr:    0.0000
     atom:   26    charge:    1.7113    magn:    0.0000    constr:    0.0000
     atom:   27    charge:    1.8204    magn:   -0.0001    constr:    0.0000
     atom:   28    charge:   13.4085    magn:    0.0002    constr:    0.0000
     atom:   29    charge:    1.8207    magn:   -0.0000    constr:    0.0000
     atom:   30    charge:    1.7113    magn:    0.0000    constr:    0.0000
     atom:   31    charge:    1.7118    magn:   -0.0000    constr:    0.0000
     atom:   32    charge:    1.7152    magn:    0.0000    constr:    0.0000
     atom:   33    charge:    1.7169    magn:   -0.0001    constr:    0.0000
     atom:   34    charge:    1.7153    magn:    0.0001    constr:    0.0000
     atom:   35    charge:    1.7169    magn:   -0.0001    constr:    0.0000
     atom:   36    charge:    1.7146    magn:    0.0001    constr:    0.0000
     atom:   37    charge:    1.7208    magn:   -0.0000    constr:    0.0000
     atom:   38    charge:    1.7114    magn:    0.0000    constr:    0.0000
     atom:   39    charge:    1.8207    magn:   -0.0001    constr:    0.0000
     atom:   40    charge:    1.7113    magn:    0.0000    constr:    0.0000
     atom:   41    charge:    1.7208    magn:   -0.0000    constr:    0.0000
     atom:   42    charge:    1.7146    magn:    0.0001    constr:    0.0000
     atom:   43    charge:    1.7169    magn:   -0.0001    constr:    0.0000
     atom:   44    charge:    1.7153    magn:    0.0001    constr:    0.0000
     atom:   45    charge:    1.7215    magn:   -0.0001    constr:    0.0000
     atom:   46    charge:    1.7153    magn:    0.0001    constr:    0.0000
     atom:   47    charge:    1.7168    magn:   -0.0001    constr:    0.0000
     atom:   48    charge:    1.7152    magn:    0.0000    constr:    0.0000
     atom:   49    charge:    1.7118    magn:   -0.0000    constr:    0.0000
     atom:   50    charge:    1.7176    magn:   -0.0000    constr:    0.0000
     atom:   51    charge:    1.7118    magn:   -0.0000    constr:    0.0000
     atom:   52    charge:    1.7152    magn:    0.0000    constr:    0.0000

     total cpu time spent up to now is     4600.1 secs

     End of self-consistent calculation

 ------ SPIN UP ------------


          k = 0.0000 0.0000 0.0000 ( 87777 PWs)   bands (ev):

  -107.8392 -69.0134 -69.0126 -66.9198 -19.8088 -18.9906 -18.9877 -18.8716
   -18.8715 -18.7860 -18.7154 -17.1438 -17.1427 -17.1119 -17.0624 -17.0606
   -16.7345 -16.2935 -16.2929 -16.1484 -16.1473 -16.1342 -15.6512 -14.2880
   -14.2878 -14.1314 -13.9993 -13.9990 -13.4940 -13.1113 -13.1108 -13.0595
   -12.8820 -12.8807 -12.4830 -12.0513 -12.0512 -11.6943 -11.5500 -11.5494
   -10.9136 -10.3994 -10.3990  -9.5554  -9.3482  -9.3478  -9.2089  -9.1939
    -9.1938  -9.1787  -8.9312  -8.9309  -8.5701  -8.5691  -8.4285  -8.0128
    -7.8827  -7.8278  -7.8150  -7.6418  -7.5209  -7.5206  -7.4266  -7.4265
    -7.3774  -6.8254  -6.8065  -6.8062  -6.7312  -6.6018  -6.6009  -6.5377
    -6.5333  -6.5328  -6.5025  -6.4470  -6.4035  -6.4003  -6.2640  -6.2637
    -6.2398  -5.5283  -5.5276  -5.0127  -4.9320  -4.8225  -4.8222  -4.7434
    -4.7030  -4.7020  -4.3813  -4.3810  -4.3795  -3.8227  -3.8216  -3.7481
    -3.7405  -3.7403  -3.4743  -3.4017  -3.3980  -3.1746  -1.8769  -1.7905
    -1.7901  -1.5740  -1.5719  -1.0897   0.1211   0.1381   0.9189   0.9759
     0.9773   1.2216   1.2296   1.5870   2.4983   2.8116   2.8160   2.8706
     3.0188   3.0519   3.4270   3.4980   3.6178   3.7426   3.7450   3.7727
     3.9354   4.2440

     occupation numbers 
     1.0000   1.0000   1.0000   1.0000   1.0000   1.0000   1.0000   1.0000
     1.0000   1.0000   1.0000   1.0000   1.0000   1.0000   1.0000   1.0000
     1.0000   1.0000   1.0000   1.0000   1.0000   1.0000   1.0000   1.0000
     1.0000   1.0000   1.0000   1.0000   1.0000   1.0000   1.0000   1.0000
     1.0000   1.0000   1.0000   1.0000   1.0000   1.0000   1.0000   1.0000
     1.0000   1.0000   1.0000   1.0000   1.0000   1.0000   1.0000   1.0000
     1.0000   1.0000   1.0000   1.0000   1.0000   1.0000   1.0000   1.0000
     1.0000   1.0000   1.0000   1.0000   1.0000   1.0000   1.0000   1.0000
     1.0000   1.0000   1.0000   1.0000   1.0000   1.0000   1.0000   1.0000
     1.0000   1.0000   1.0000   1.0000   1.0000   1.0000   1.0000   1.0000
     1.0000   1.0000   1.0000   1.0000   1.0000   1.0000   1.0000   1.0000
     1.0000   1.0000   1.0000   1.0000   1.0000   1.0000   1.0000   1.0000
     1.0000   1.0000   1.0000   1.0000   1.0000   1.0000   1.0000   1.0000
     1.0000   1.0000   1.0000   1.0000   0.0000   0.0000   0.0000   0.0000
     0.0000   0.0000   0.0000   0.0000   0.0000   0.0000   0.0000   0.0000
     0.0000   0.0000   0.0000   0.0000   0.0000   0.0000   0.0000   0.0000
     0.0000   0.0000

 ------ SPIN DOWN ----------


          k = 0.0000 0.0000 0.0000 ( 87777 PWs)   bands (ev):

  -107.8382 -69.0123 -69.0115 -66.9190 -19.8089 -18.9906 -18.9877 -18.8716
   -18.8715 -18.7860 -18.7155 -17.1438 -17.1427 -17.1119 -17.0624 -17.0606
   -16.7346 -16.2934 -16.2929 -16.1484 -16.1473 -16.1342 -15.6512 -14.2881
   -14.2879 -14.1314 -13.9992 -13.9989 -13.4942 -13.1112 -13.1108 -13.0596
   -12.8820 -12.8807 -12.4830 -12.0513 -12.0512 -11.6942 -11.5500 -11.5494
   -10.9137 -10.3993 -10.3989  -9.5554  -9.3482  -9.3478  -9.2089  -9.1939
    -9.1938  -9.1788  -8.9312  -8.9308  -8.5701  -8.5690  -8.4285  -8.0128
    -7.8827  -7.8276  -7.8148  -7.6418  -7.5210  -7.5206  -7.4266  -7.4265
    -7.3774  -6.8254  -6.8065  -6.8062  -6.7312  -6.6018  -6.6009  -6.5377
    -6.5333  -6.5328  -6.5025  -6.4469  -6.4034  -6.4002  -6.2640  -6.2637
    -6.2398  -5.5283  -5.5276  -5.0127  -4.9320  -4.8225  -4.8222  -4.7434
    -4.7030  -4.7020  -4.3812  -4.3810  -4.3795  -3.8228  -3.8217  -3.7482
    -3.7405  -3.7403  -3.4741  -3.4016  -3.3978  -3.1745  -1.8770  -1.7903
    -1.7899  -1.5740  -1.5719  -1.0901   0.1213   0.1380   0.9187   0.9761
     0.9775   1.2217   1.2296   1.5870   2.4983   2.8115   2.8158   2.8705
     3.0189   3.0520   3.4269   3.4980   3.6177   3.7425   3.7451   3.7727
     3.9354   4.2439

     occupation numbers 
     1.0000   1.0000   1.0000   1.0000   1.0000   1.0000   1.0000   1.0000
     1.0000   1.0000   1.0000   1.0000   1.0000   1.0000   1.0000   1.0000
     1.0000   1.0000   1.0000   1.0000   1.0000   1.0000   1.0000   1.0000
     1.0000   1.0000   1.0000   1.0000   1.0000   1.0000   1.0000   1.0000
     1.0000   1.0000   1.0000   1.0000   1.0000   1.0000   1.0000   1.0000
     1.0000   1.0000   1.0000   1.0000   1.0000   1.0000   1.0000   1.0000
     1.0000   1.0000   1.0000   1.0000   1.0000   1.0000   1.0000   1.0000
     1.0000   1.0000   1.0000   1.0000   1.0000   1.0000   1.0000   1.0000
     1.0000   1.0000   1.0000   1.0000   1.0000   1.0000   1.0000   1.0000
     1.0000   1.0000   1.0000   1.0000   1.0000   1.0000   1.0000   1.0000
     1.0000   1.0000   1.0000   1.0000   1.0000   1.0000   1.0000   1.0000
     1.0000   1.0000   1.0000   1.0000   1.0000   1.0000   1.0000   1.0000
     1.0000   1.0000   1.0000   1.0000   1.0000   1.0000   1.0000   1.0000
     1.0000   1.0000   1.0000   1.0000   0.0000   0.0000   0.0000   0.0000
     0.0000   0.0000   0.0000   0.0000   0.0000   0.0000   0.0000   0.0000
     0.0000   0.0000   0.0000   0.0000   0.0000   0.0000   0.0000   0.0000
     0.0000   0.0000

     the Fermi energy is    -0.9853 ev

!    total energy              =    -951.86116217 Ry
     Harris-Foulkes estimate   =    -951.86116108 Ry
     estimated scf accuracy    <       0.00000084 Ry

     The total energy is the sum of the following terms:

     one-electron contribution =   -2996.53034426 Ry
     hartree contribution      =    1541.10950075 Ry
     xc contribution           =    -265.78147078 Ry
     ewald contribution        =     769.34115212 Ry
     smearing contrib. (-TS)   =       0.00000000 Ry

     total magnetization       =     0.00 Bohr mag/cell
     absolute magnetization    =     0.00 Bohr mag/cell

     convergence has been achieved in  45 iterations

     Writing output data file niquel-top-distance-2.4.save/

     init_run     :     73.78s CPU     75.03s WALL (       1 calls)
     electrons    :   4449.05s CPU   4524.10s WALL (       1 calls)

     Called by init_run:
     wfcinit      :     41.00s CPU     41.28s WALL (       1 calls)
     wfcinit:atom :      0.04s CPU      0.08s WALL (       2 calls)
     wfcinit:wfcr :     40.63s CPU     40.80s WALL (       2 calls)
     potinit      :     13.56s CPU     13.93s WALL (       1 calls)
     hinit0       :     10.91s CPU     10.94s WALL (       1 calls)

     Called by electrons:
     c_bands      :   2882.46s CPU   2897.86s WALL (      45 calls)
     sum_band     :    904.62s CPU    928.42s WALL (      45 calls)
     v_of_rho     :    327.45s CPU    341.91s WALL (      46 calls)
     v_h          :      3.47s CPU      3.58s WALL (      46 calls)
     v_xc         :    323.98s CPU    338.32s WALL (      46 calls)
     newd         :    317.90s CPU    339.56s WALL (      46 calls)
     mix_rho      :     20.63s CPU     20.94s WALL (      45 calls)

     Called by c_bands:
     init_us_2    :      8.25s CPU      8.31s WALL (     182 calls)
     cegterg      :   2860.12s CPU   2875.42s WALL (      90 calls)

     Called by sum_band:
     sum_band:bec :      0.07s CPU      0.07s WALL (      90 calls)
     addusdens    :    549.73s CPU    571.71s WALL (      45 calls)

     Called by *egterg:
     h_psi        :   1492.89s CPU   1503.53s WALL (     344 calls)
     s_psi        :    501.48s CPU    501.74s WALL (     344 calls)
     g_psi        :      1.65s CPU      1.66s WALL (     252 calls)
     cdiaghg      :     23.72s CPU     23.73s WALL (     342 calls)
     cegterg:over :    352.14s CPU    352.33s WALL (     252 calls)
     cegterg:upda :    217.54s CPU    218.77s WALL (     252 calls)
     cegterg:last :    151.92s CPU    151.97s WALL (      90 calls)

     Called by h_psi:
     h_psi:pot    :   1491.12s CPU   1500.02s WALL (     344 calls)
     h_psi:calbec :    505.26s CPU    505.48s WALL (     344 calls)
     vloc_psi     :    484.99s CPU    493.52s WALL (     344 calls)
     add_vuspsi   :    500.87s CPU    501.01s WALL (     344 calls)

     General routines
     calbec       :    721.61s CPU    721.91s WALL (     434 calls)
     fft          :    189.36s CPU    195.21s WALL (    3444 calls)
     ffts         :      3.27s CPU      3.33s WALL (     182 calls)
     fftw         :    515.93s CPU    525.04s WALL (   66312 calls)
     interpolate  :      7.71s CPU      7.92s WALL (      92 calls)

     Parallel routines
     fft_scatt_xy :    127.62s CPU    129.33s WALL (   69938 calls)
     fft_scatt_yz :    236.79s CPU    247.66s WALL (   69938 calls)

     PWSCF        :      1h15m CPU      1h16m WALL


   This run was terminated on:   5: 7:34  31Dec2022            

=------------------------------------------------------------------------------=
   JOB DONE.
=------------------------------------------------------------------------------=
