
     Program PWSCF v.6.4.1 starts on 30Dec2022 at 21: 1:37 

     This program is part of the open-source Quantum ESPRESSO suite
     for quantum simulation of materials; please cite
         "P. Giannozzi et al., J. Phys.:Condens. Matter 21 395502 (2009);
         "P. Giannozzi et al., J. Phys.:Condens. Matter 29 465901 (2017);
          URL http://www.quantum-espresso.org", 
     in publications or presentations arising from this work. More details at
     http://www.quantum-espresso.org/quote

     Parallel version (MPI), running on     6 processors

     MPI processes distributed on     1 nodes
     R & G space division:  proc/nbgrp/npool/nimage =       6
     Reading input from distance-2.8.in

     Current dimensions of program PWSCF are:
     Max number of different atomic species (ntypx) = 10
     Max number of k-points (npk) =  40000
     Max angular momentum in pseudopotentials (lmaxx) =  3

     IMPORTANT: XC functional enforced from input :
     Exchange-correlation      = RVV10 ( 1  4 13  4 3 0)
     Any further DFT definition will be discarded
     Please, verify this is what you really want

               file H.pbe-rrkjus.UPF: wavefunction(s)  1S renormalized

     Subspace diagonalization in iterative solution of the eigenvalue problem:
     a serial algorithm will be used


     Parallelization info
     --------------------
     sticks:   dense  smooth     PW     G-vecs:    dense   smooth      PW
     Min        3051    1746    432               270999   117096   14629
     Max        3053    1747    437               271001   117099   14630
     Sum       18313   10477   2611              1626001   702581   87777



     bravais-lattice index     =            4
     lattice parameter (alat)  =      23.2937  a.u.
     unit-cell volume          =    8879.8548 (a.u.)^3
     number of atoms/cell      =           52
     number of atomic types    =            3
     number of electrons       =       216.00
     number of Kohn-Sham states=          130
     kinetic-energy cutoff     =      70.0000  Ry
     charge density cutoff     =     490.0000  Ry
     convergence threshold     =      1.0E-06
     mixing beta               =       0.7000
     number of iterations used =            8  plain     mixing
     Exchange-correlation      = RVV10 ( 1  4 13  4 3 0)

     celldm(1)=  23.293684  celldm(2)=   0.000000  celldm(3)=   0.811261
     celldm(4)=   0.000000  celldm(5)=   0.000000  celldm(6)=   0.000000

     crystal axes: (cart. coord. in units of alat)
               a(1) = (   1.000000   0.000000   0.000000 )  
               a(2) = (  -0.500000   0.866025   0.000000 )  
               a(3) = (   0.000000   0.000000   0.811261 )  

     reciprocal axes: (cart. coord. in units 2 pi/alat)
               b(1) = (  1.000000  0.577350 -0.000000 )  
               b(2) = (  0.000000  1.154701  0.000000 )  
               b(3) = (  0.000000 -0.000000  1.232649 )  


     PseudoPot. # 1 for H  read from file:
     /home/cristian/Escritorio/Proyecto_Grafeno/pseudopotenciales/H.pbe-rrkjus.UPF
     MD5 check sum: 7cc9d459525c9a0585f487a71c3c9563
     Pseudo is Ultrasoft, Zval =  1.0
     Generated by new atomic code, or converted to UPF format
     Using radial grid of 1061 points,  2 beta functions with: 
                l(1) =   0
                l(2) =   0
     Q(r) pseudized with 0 coefficients 


     PseudoPot. # 2 for C  read from file:
     /home/cristian/Escritorio/Proyecto_Grafeno/pseudopotenciales/C.pbe-n-rrkjus_psl.1.0.0.UPF
     MD5 check sum: 1fdd950c42eb37d8afe3dd2f8d12311e
     Pseudo is Ultrasoft + core correction, Zval =  4.0
     Generated using "atomic" code by A. Dal Corso v.6.3MaX
     Using radial grid of 1073 points,  4 beta functions with: 
                l(1) =   0
                l(2) =   0
                l(3) =   1
                l(4) =   1
     Q(r) pseudized with 0 coefficients 


     PseudoPot. # 3 for Ni read from file:
     /home/cristian/Escritorio/Proyecto_Grafeno/pseudopotenciales/Ni.pbe-spn-rrkjus_psl.1.0.0.UPF
     MD5 check sum: 8b3fc9aac6dafe35f580d41bb18c3945
     Pseudo is Ultrasoft + core correction, Zval = 18.0
     Generated using "atomic" code by A. Dal Corso v.6.3
     Using radial grid of 1195 points,  6 beta functions with: 
                l(1) =   0
                l(2) =   0
                l(3) =   1
                l(4) =   1
                l(5) =   2
                l(6) =   2
     Q(r) pseudized with 0 coefficients 


     vdW kernel table read from file rVV10_kernel_table
     MD5 check sum: b8e2538accc0c0b3206b45ba4daaba6c

     atomic species   valence    mass     pseudopotential
        H              1.00     1.00794     H ( 1.00)
        C              4.00    12.01070     C ( 1.00)
        Ni            18.00    58.69340     Ni( 1.00)

     Starting magnetic structure 
     atomic species   magnetization
        H            0.500
        C            0.300
        Ni           0.800

     No symmetry found


                                    s                        frac. trans.

      isym =  1     identity                                     

 cryst.   s( 1) = (     1          0          0      )
                  (     0          1          0      )
                  (     0          0          1      )

 cart.    s( 1) = (  1.0000000  0.0000000  0.0000000 )
                  (  0.0000000  1.0000000  0.0000000 )
                  (  0.0000000  0.0000000  1.0000000 )


     point group C_1 (1)    
     there are  1 classes
     the character table:

       E    
A      1.00

     the symmetry operations in each class and the name of the first element:

     E        1
          identity                                               

   Cartesian axes

     site n.     atom                  positions (alat units)
         1           H   tau(   1) = (   0.1694937   0.4618802   0.2271531  )
         2           H   tau(   2) = (   0.2305063   0.4618802   0.2271531  )
         3           C   tau(   3) = (   0.0000000   0.0000000   0.0000000  )
         4           C   tau(   4) = (   0.0000000   0.1154701   0.0000000  )
         5           C   tau(   5) = (  -0.1000000   0.1732051   0.0000000  )
         6           C   tau(   6) = (  -0.1000000   0.2886751   0.0000000  )
         7           C   tau(   7) = (  -0.2000000   0.3464102   0.0000000  )
         8           C   tau(   8) = (  -0.2000000   0.4618802   0.0000000  )
         9           C   tau(   9) = (  -0.3000000   0.5196152   0.0000000  )
        10           C   tau(  10) = (  -0.3000000   0.6350853   0.0000000  )
        11           C   tau(  11) = (  -0.4000000   0.6928203   0.0000000  )
        12           C   tau(  12) = (  -0.4000000   0.8082904   0.0000000  )
        13           C   tau(  13) = (   0.2000000   0.0000000   0.0000000  )
        14           C   tau(  14) = (   0.2000000   0.1154701   0.0000000  )
        15           C   tau(  15) = (   0.1000000   0.1732051   0.0000000  )
        16           C   tau(  16) = (   0.1000000   0.2886751   0.0000000  )
        17           C   tau(  17) = (   0.0000000   0.3464102   0.0000000  )
        18           C   tau(  18) = (   0.0000000   0.4618802   0.0000000  )
        19           C   tau(  19) = (  -0.1000000   0.5196152   0.0000000  )
        20           C   tau(  20) = (  -0.1000000   0.6350853   0.0000000  )
        21           C   tau(  21) = (  -0.2000000   0.6928203   0.0000000  )
        22           C   tau(  22) = (  -0.2000000   0.8082904   0.0000000  )
        23           C   tau(  23) = (   0.4000000   0.0000000   0.0000000  )
        24           C   tau(  24) = (   0.4000000   0.1154701   0.0000000  )
        25           C   tau(  25) = (   0.3000000   0.1732051   0.0000000  )
        26           C   tau(  26) = (   0.3000000   0.2886751   0.0000000  )
        27           C   tau(  27) = (   0.2000000   0.3464102   0.0000000  )
        28           Ni  tau(  28) = (   0.2000000   0.4618802   0.0000000  )
        29           C   tau(  29) = (   0.1000000   0.5196152   0.0000000  )
        30           C   tau(  30) = (   0.1000000   0.6350853   0.0000000  )
        31           C   tau(  31) = (   0.0000000   0.6928203   0.0000000  )
        32           C   tau(  32) = (   0.0000000   0.8082904   0.0000000  )
        33           C   tau(  33) = (   0.6000000   0.0000000   0.0000000  )
        34           C   tau(  34) = (   0.6000000   0.1154701   0.0000000  )
        35           C   tau(  35) = (   0.5000000   0.1732051   0.0000000  )
        36           C   tau(  36) = (   0.5000000   0.2886751   0.0000000  )
        37           C   tau(  37) = (   0.4000000   0.3464102   0.0000000  )
        38           C   tau(  38) = (   0.4000000   0.4618802   0.0000000  )
        39           C   tau(  39) = (   0.3000000   0.5196152   0.0000000  )
        40           C   tau(  40) = (   0.3000000   0.6350853   0.0000000  )
        41           C   tau(  41) = (   0.2000000   0.6928203   0.0000000  )
        42           C   tau(  42) = (   0.2000000   0.8082904   0.0000000  )
        43           C   tau(  43) = (   0.8000000   0.0000000   0.0000000  )
        44           C   tau(  44) = (   0.8000000   0.1154701   0.0000000  )
        45           C   tau(  45) = (   0.7000000   0.1732051   0.0000000  )
        46           C   tau(  46) = (   0.7000000   0.2886751   0.0000000  )
        47           C   tau(  47) = (   0.6000000   0.3464102   0.0000000  )
        48           C   tau(  48) = (   0.6000000   0.4618802   0.0000000  )
        49           C   tau(  49) = (   0.5000000   0.5196152   0.0000000  )
        50           C   tau(  50) = (   0.5000000   0.6350853   0.0000000  )
        51           C   tau(  51) = (   0.4000000   0.6928203   0.0000000  )
        52           C   tau(  52) = (   0.4000000   0.8082904   0.0000000  )

   Crystallographic axes

     site n.     atom                  positions (cryst. coord.)
         1           H   tau(   1) = (  0.4361603  0.5333333  0.2800000  )
         2           H   tau(   2) = (  0.4971730  0.5333333  0.2800000  )
         3           C   tau(   3) = (  0.0000000  0.0000000  0.0000000  )
         4           C   tau(   4) = (  0.0666667  0.1333333  0.0000000  )
         5           C   tau(   5) = (  0.0000000  0.2000000  0.0000000  )
         6           C   tau(   6) = (  0.0666667  0.3333333  0.0000000  )
         7           C   tau(   7) = (  0.0000000  0.4000000  0.0000000  )
         8           C   tau(   8) = (  0.0666667  0.5333333  0.0000000  )
         9           C   tau(   9) = (  0.0000000  0.6000000  0.0000000  )
        10           C   tau(  10) = (  0.0666667  0.7333333  0.0000000  )
        11           C   tau(  11) = (  0.0000000  0.8000000  0.0000000  )
        12           C   tau(  12) = (  0.0666667  0.9333333  0.0000000  )
        13           C   tau(  13) = (  0.2000000  0.0000000  0.0000000  )
        14           C   tau(  14) = (  0.2666667  0.1333333  0.0000000  )
        15           C   tau(  15) = (  0.2000000  0.2000000  0.0000000  )
        16           C   tau(  16) = (  0.2666667  0.3333333  0.0000000  )
        17           C   tau(  17) = (  0.2000000  0.4000000  0.0000000  )
        18           C   tau(  18) = (  0.2666667  0.5333333  0.0000000  )
        19           C   tau(  19) = (  0.2000000  0.6000000  0.0000000  )
        20           C   tau(  20) = (  0.2666667  0.7333333  0.0000000  )
        21           C   tau(  21) = (  0.2000000  0.8000000  0.0000000  )
        22           C   tau(  22) = (  0.2666667  0.9333333  0.0000000  )
        23           C   tau(  23) = (  0.4000000  0.0000000  0.0000000  )
        24           C   tau(  24) = (  0.4666667  0.1333333  0.0000000  )
        25           C   tau(  25) = (  0.4000000  0.2000000  0.0000000  )
        26           C   tau(  26) = (  0.4666667  0.3333333  0.0000000  )
        27           C   tau(  27) = (  0.4000000  0.4000000  0.0000000  )
        28           Ni  tau(  28) = (  0.4666667  0.5333333  0.0000000  )
        29           C   tau(  29) = (  0.4000000  0.6000000  0.0000000  )
        30           C   tau(  30) = (  0.4666667  0.7333333  0.0000000  )
        31           C   tau(  31) = (  0.4000000  0.8000000  0.0000000  )
        32           C   tau(  32) = (  0.4666667  0.9333333  0.0000000  )
        33           C   tau(  33) = (  0.6000000  0.0000000  0.0000000  )
        34           C   tau(  34) = (  0.6666667  0.1333333  0.0000000  )
        35           C   tau(  35) = (  0.6000000  0.2000000  0.0000000  )
        36           C   tau(  36) = (  0.6666667  0.3333333  0.0000000  )
        37           C   tau(  37) = (  0.6000000  0.4000000  0.0000000  )
        38           C   tau(  38) = (  0.6666667  0.5333333  0.0000000  )
        39           C   tau(  39) = (  0.6000000  0.6000000  0.0000000  )
        40           C   tau(  40) = (  0.6666667  0.7333333  0.0000000  )
        41           C   tau(  41) = (  0.6000000  0.8000000  0.0000000  )
        42           C   tau(  42) = (  0.6666667  0.9333333  0.0000000  )
        43           C   tau(  43) = (  0.8000000  0.0000000  0.0000000  )
        44           C   tau(  44) = (  0.8666667  0.1333333  0.0000000  )
        45           C   tau(  45) = (  0.8000000  0.2000000  0.0000000  )
        46           C   tau(  46) = (  0.8666667  0.3333333  0.0000000  )
        47           C   tau(  47) = (  0.8000000  0.4000000  0.0000000  )
        48           C   tau(  48) = (  0.8666667  0.5333333  0.0000000  )
        49           C   tau(  49) = (  0.8000000  0.6000000  0.0000000  )
        50           C   tau(  50) = (  0.8666667  0.7333333  0.0000000  )
        51           C   tau(  51) = (  0.8000000  0.8000000  0.0000000  )
        52           C   tau(  52) = (  0.8666667  0.9333333  0.0000000  )

     number of k points=     1  Marzari-Vanderbilt smearing, width (Ry)=  0.0010
                       cart. coord. in units 2pi/alat
        k(    1) = (   0.0000000   0.0000000   0.0000000), wk =   1.0000000

                       cryst. coord.
        k(    1) = (   0.0000000   0.0000000   0.0000000), wk =   1.0000000

     Dense  grid:  1626001 G-vectors     FFT dimensions: ( 180, 180, 135)

     Smooth grid:   702581 G-vectors     FFT dimensions: ( 125, 125, 108)

     Dynamical RAM for                 wfc:      29.03 MB

     Dynamical RAM for     wfc (w. buffer):      87.10 MB

     Dynamical RAM for           str. fact:      12.41 MB

     Dynamical RAM for           local pot:       0.00 MB

     Dynamical RAM for          nlocal pot:      92.46 MB

     Dynamical RAM for                qrad:      19.73 MB

     Dynamical RAM for          rho,v,vnew:      58.92 MB

     Dynamical RAM for               rhoin:      19.64 MB

     Dynamical RAM for            rho*nmix:     132.32 MB

     Dynamical RAM for           G-vectors:      16.40 MB

     Dynamical RAM for          h,s,v(r/c):      12.38 MB

     Dynamical RAM for          <psi|beta>:       0.82 MB

     Dynamical RAM for                 psi:     116.14 MB

     Dynamical RAM for                hpsi:     116.14 MB

     Dynamical RAM for                spsi:     116.14 MB

     Dynamical RAM for      wfcinit/wfcrot:      93.90 MB

     Dynamical RAM for           addusdens:     975.89 MB

     Estimated static dynamical RAM per process >     489.64 MB

     Estimated max dynamical RAM per process >       1.43 GB

     Estimated total dynamical RAM >       8.59 GB
     Generating pointlists ...
     new r_m :   0.0252 (alat units)  0.5862 (a.u.) for type    1
     new r_m :   0.0476 (alat units)  1.1095 (a.u.) for type    2
     new r_m :   0.0476 (alat units)  1.1095 (a.u.) for type    3

     Check: negative core charge=   -0.000002

     Initial potential from superposition of free atoms

     starting charge  215.80530, renormalised to  216.00000

     negative rho (up, down):  1.448E-04 1.561E-02


---------------------------------------------------------------------------------
Carrying out rVV10 run using the following parameters:
Nqs =      20    Nr_points =    1024   r_max =   100.000
b_value =  6.30000    beta =  0.00901
     q_mesh =  0.00010000  0.00030000  0.00058939  0.00100810
               0.00161396  0.00249058  0.00375900  0.00559430
               0.00824984  0.01209221  0.01765183  0.02569619
               0.03733578  0.05417739  0.07854596  0.11380545
               0.16482331  0.23864234  0.34545298  0.50000000

Gradients computed in Reciprocal space

---------------------------------------------------------------------------------


     Starting wfcs are  208 randomized atomic wfcs

     total cpu time spent up to now is       80.2 secs

     Self-consistent Calculation

     iteration #  1     ecut=    70.00 Ry     beta= 0.70
     Davidson diagonalization with overlap
     ethr =  1.00E-02,  avg # of iterations =  8.5

     negative rho (up, down):  2.757E-04 1.371E-02

     total cpu time spent up to now is      212.2 secs

     total energy              =    -946.90046191 Ry
     Harris-Foulkes estimate   =    -949.67457891 Ry
     estimated scf accuracy    <      13.91244571 Ry

     total magnetization       =     6.00 Bohr mag/cell
     absolute magnetization    =     6.73 Bohr mag/cell

     iteration #  2     ecut=    70.00 Ry     beta= 0.70
     Davidson diagonalization with overlap
     ethr =  6.44E-03,  avg # of iterations =  3.0

     negative rho (up, down):  6.064E-03 2.486E-01

     total cpu time spent up to now is      325.0 secs

     total energy              =    -948.45960612 Ry
     Harris-Foulkes estimate   =    -956.59560697 Ry
     estimated scf accuracy    <      33.67621793 Ry

     total magnetization       =     4.00 Bohr mag/cell
     absolute magnetization    =     7.22 Bohr mag/cell

     iteration #  3     ecut=    70.00 Ry     beta= 0.70
     Davidson diagonalization with overlap
     ethr =  6.44E-03,  avg # of iterations =  4.0

     negative rho (up, down):  7.063E-02 5.260E-01

     total cpu time spent up to now is      438.3 secs

     total energy              =    -953.60195436 Ry
     Harris-Foulkes estimate   =    -960.48104730 Ry
     estimated scf accuracy    <     494.50682745 Ry

     total magnetization       =     2.00 Bohr mag/cell
     absolute magnetization    =    33.32 Bohr mag/cell

     iteration #  4     ecut=    70.00 Ry     beta= 0.70
     Davidson diagonalization with overlap
     ethr =  6.44E-03,  avg # of iterations =  4.0

     negative rho (up, down):  5.542E-02 5.116E-01

     total cpu time spent up to now is      537.2 secs

     total energy              =    -943.83099011 Ry
     Harris-Foulkes estimate   =    -955.06257973 Ry
     estimated scf accuracy    <     184.68683272 Ry

     total magnetization       =     3.98 Bohr mag/cell
     absolute magnetization    =    22.31 Bohr mag/cell

     iteration #  5     ecut=    70.00 Ry     beta= 0.70
     Davidson diagonalization with overlap
     ethr =  6.44E-03,  avg # of iterations =  4.0

     negative rho (up, down):  1.976E-02 4.576E-01

     total cpu time spent up to now is      665.4 secs

     total energy              =    -954.54870248 Ry
     Harris-Foulkes estimate   =    -955.18178469 Ry
     estimated scf accuracy    <     206.17343871 Ry

     total magnetization       =     4.00 Bohr mag/cell
     absolute magnetization    =    23.96 Bohr mag/cell

     iteration #  6     ecut=    70.00 Ry     beta= 0.70
     Davidson diagonalization with overlap
     ethr =  6.44E-03,  avg # of iterations =  1.0

     negative rho (up, down):  3.702E-02 4.824E-01

     total cpu time spent up to now is      755.8 secs

     total energy              =    -951.85318951 Ry
     Harris-Foulkes estimate   =    -954.64736382 Ry
     estimated scf accuracy    <     170.01477907 Ry

     total magnetization       =     4.00 Bohr mag/cell
     absolute magnetization    =    21.80 Bohr mag/cell

     iteration #  7     ecut=    70.00 Ry     beta= 0.70
     Davidson diagonalization with overlap
     ethr =  6.44E-03,  avg # of iterations =  2.0

     negative rho (up, down):  3.747E-02 4.577E-01

     total cpu time spent up to now is      850.7 secs

     total energy              =    -954.44563875 Ry
     Harris-Foulkes estimate   =    -952.97602330 Ry
     estimated scf accuracy    <      96.77491105 Ry

     total magnetization       =     2.00 Bohr mag/cell
     absolute magnetization    =    16.40 Bohr mag/cell

     iteration #  8     ecut=    70.00 Ry     beta= 0.70
     Davidson diagonalization with overlap
     ethr =  6.44E-03,  avg # of iterations =  2.0

     negative rho (up, down):  7.362E-02 4.800E-01

     total cpu time spent up to now is      946.5 secs

     total energy              =    -946.59830981 Ry
     Harris-Foulkes estimate   =    -956.13907477 Ry
     estimated scf accuracy    <     285.18718087 Ry

     total magnetization       =     2.00 Bohr mag/cell
     absolute magnetization    =    26.91 Bohr mag/cell

     iteration #  9     ecut=    70.00 Ry     beta= 0.70
     Davidson diagonalization with overlap
     ethr =  6.44E-03,  avg # of iterations =  2.0

     negative rho (up, down):  2.464E-02 4.103E-01

     total cpu time spent up to now is     1049.5 secs

     total energy              =    -951.75616255 Ry
     Harris-Foulkes estimate   =    -951.71785363 Ry
     estimated scf accuracy    <      18.33791260 Ry

     total magnetization       =    -0.00 Bohr mag/cell
     absolute magnetization    =     6.75 Bohr mag/cell

     iteration # 10     ecut=    70.00 Ry     beta= 0.70
     Davidson diagonalization with overlap
     ethr =  6.44E-03,  avg # of iterations =  2.0

     negative rho (up, down):  4.212E-02 3.370E-01

     total cpu time spent up to now is     1141.3 secs

     total energy              =    -951.22458554 Ry
     Harris-Foulkes estimate   =    -952.16851698 Ry
     estimated scf accuracy    <      24.29068783 Ry

     total magnetization       =     0.00 Bohr mag/cell
     absolute magnetization    =     7.47 Bohr mag/cell

     iteration # 11     ecut=    70.00 Ry     beta= 0.70
     Davidson diagonalization with overlap
     ethr =  6.44E-03,  avg # of iterations =  2.0

     negative rho (up, down):  4.819E-02 9.005E-02

     total cpu time spent up to now is     1234.6 secs

     total energy              =    -951.86141255 Ry
     Harris-Foulkes estimate   =    -951.92215000 Ry
     estimated scf accuracy    <       4.94665825 Ry

     total magnetization       =    -0.00 Bohr mag/cell
     absolute magnetization    =     2.27 Bohr mag/cell

     iteration # 12     ecut=    70.00 Ry     beta= 0.70
     Davidson diagonalization with overlap
     ethr =  2.29E-03,  avg # of iterations =  2.0

     negative rho (up, down):  7.403E-03 3.487E-01

     total cpu time spent up to now is     1326.1 secs

     total energy              =    -951.85827908 Ry
     Harris-Foulkes estimate   =    -951.98238319 Ry
     estimated scf accuracy    <       4.30442191 Ry

     total magnetization       =    -0.00 Bohr mag/cell
     absolute magnetization    =     3.12 Bohr mag/cell

     iteration # 13     ecut=    70.00 Ry     beta= 0.70
     Davidson diagonalization with overlap
     ethr =  1.99E-03,  avg # of iterations =  1.0

     negative rho (up, down):  5.324E-03 3.554E-01

     total cpu time spent up to now is     1416.7 secs

     total energy              =    -951.85599765 Ry
     Harris-Foulkes estimate   =    -951.92323970 Ry
     estimated scf accuracy    <       4.05688193 Ry

     total magnetization       =     0.00 Bohr mag/cell
     absolute magnetization    =     3.15 Bohr mag/cell

     iteration # 14     ecut=    70.00 Ry     beta= 0.70
     Davidson diagonalization with overlap
     ethr =  1.88E-03,  avg # of iterations =  1.5

     negative rho (up, down):  1.262E-02 3.332E-01

     total cpu time spent up to now is     1507.4 secs

     total energy              =    -951.83996577 Ry
     Harris-Foulkes estimate   =    -951.89250720 Ry
     estimated scf accuracy    <       2.16502924 Ry

     total magnetization       =     0.00 Bohr mag/cell
     absolute magnetization    =     2.15 Bohr mag/cell

     iteration # 15     ecut=    70.00 Ry     beta= 0.70
     Davidson diagonalization with overlap
     ethr =  1.00E-03,  avg # of iterations =  4.0

     negative rho (up, down):  8.405E-03 3.233E-01

     total cpu time spent up to now is     1600.2 secs

     total energy              =    -951.88220098 Ry
     Harris-Foulkes estimate   =    -951.88196823 Ry
     estimated scf accuracy    <       0.88177225 Ry

     total magnetization       =     0.00 Bohr mag/cell
     absolute magnetization    =     1.31 Bohr mag/cell

     iteration # 16     ecut=    70.00 Ry     beta= 0.70
     Davidson diagonalization with overlap
     ethr =  4.08E-04,  avg # of iterations =  3.5

     negative rho (up, down):  1.976E-02 2.656E-01

     total cpu time spent up to now is     1708.6 secs

     total energy              =    -951.88335672 Ry
     Harris-Foulkes estimate   =    -951.89108667 Ry
     estimated scf accuracy    <       1.12866469 Ry

     total magnetization       =     0.00 Bohr mag/cell
     absolute magnetization    =     1.29 Bohr mag/cell

     iteration # 17     ecut=    70.00 Ry     beta= 0.70
     Davidson diagonalization with overlap
     ethr =  4.08E-04,  avg # of iterations =  2.0

     negative rho (up, down):  8.712E-03 3.702E-01

     total cpu time spent up to now is     1825.3 secs

     total energy              =    -951.87656188 Ry
     Harris-Foulkes estimate   =    -951.94922905 Ry
     estimated scf accuracy    <       4.33944633 Ry

     total magnetization       =     0.00 Bohr mag/cell
     absolute magnetization    =     3.18 Bohr mag/cell

     iteration # 18     ecut=    70.00 Ry     beta= 0.70
     Davidson diagonalization with overlap
     ethr =  4.08E-04,  avg # of iterations =  2.0

     negative rho (up, down):  2.131E-03 3.549E-01

     total cpu time spent up to now is     1935.4 secs

     total energy              =    -951.98757558 Ry
     Harris-Foulkes estimate   =    -951.89506402 Ry
     estimated scf accuracy    <       1.33331401 Ry

     total magnetization       =     0.00 Bohr mag/cell
     absolute magnetization    =     1.74 Bohr mag/cell

     iteration # 19     ecut=    70.00 Ry     beta= 0.70
     Davidson diagonalization with overlap
     ethr =  4.08E-04,  avg # of iterations =  2.5

     negative rho (up, down):  1.068E-02 4.288E-01

     total cpu time spent up to now is     2058.0 secs

     total energy              =    -951.25997296 Ry
     Harris-Foulkes estimate   =    -952.33750998 Ry
     estimated scf accuracy    <      30.14301824 Ry

     total magnetization       =    -0.00 Bohr mag/cell
     absolute magnetization    =     8.33 Bohr mag/cell

     iteration # 20     ecut=    70.00 Ry     beta= 0.70
     Davidson diagonalization with overlap
     ethr =  4.08E-04,  avg # of iterations =  5.5

     negative rho (up, down):  1.700E-02 2.794E-01

     total cpu time spent up to now is     2177.4 secs

     total energy              =    -951.84212713 Ry
     Harris-Foulkes estimate   =    -951.83161895 Ry
     estimated scf accuracy    <       0.70549123 Ry

     total magnetization       =     0.08 Bohr mag/cell
     absolute magnetization    =     0.94 Bohr mag/cell

     iteration # 21     ecut=    70.00 Ry     beta= 0.70
     Davidson diagonalization with overlap
     ethr =  3.27E-04,  avg # of iterations =  2.0

     negative rho (up, down):  1.050E-02 1.868E-01

     total cpu time spent up to now is     2282.4 secs

     total energy              =    -951.86403176 Ry
     Harris-Foulkes estimate   =    -951.87850853 Ry
     estimated scf accuracy    <       0.37981305 Ry

     total magnetization       =    -0.00 Bohr mag/cell
     absolute magnetization    =     0.47 Bohr mag/cell

     iteration # 22     ecut=    70.00 Ry     beta= 0.70
     Davidson diagonalization with overlap
     ethr =  1.76E-04,  avg # of iterations =  6.0

     negative rho (up, down):  3.373E-03 1.743E-01

     total cpu time spent up to now is     2392.0 secs

     total energy              =    -951.87324741 Ry
     Harris-Foulkes estimate   =    -951.87928112 Ry
     estimated scf accuracy    <       0.04120918 Ry

     total magnetization       =    -0.00 Bohr mag/cell
     absolute magnetization    =     0.23 Bohr mag/cell

     iteration # 23     ecut=    70.00 Ry     beta= 0.70
     Davidson diagonalization with overlap
     ethr =  1.91E-05,  avg # of iterations =  4.0

     negative rho (up, down):  1.289E-02 1.834E-01

     total cpu time spent up to now is     2522.7 secs

     total energy              =    -951.89762619 Ry
     Harris-Foulkes estimate   =    -951.91464019 Ry
     estimated scf accuracy    <       0.93227049 Ry

     total magnetization       =     0.00 Bohr mag/cell
     absolute magnetization    =     0.97 Bohr mag/cell

     iteration # 24     ecut=    70.00 Ry     beta= 0.70
     Davidson diagonalization with overlap
     ethr =  1.91E-05,  avg # of iterations =  3.0

     negative rho (up, down):  9.766E-03 3.346E-01

     total cpu time spent up to now is     2655.9 secs

     total energy              =    -951.80596844 Ry
     Harris-Foulkes estimate   =    -951.93999148 Ry
     estimated scf accuracy    <       3.29988434 Ry

     total magnetization       =    -0.00 Bohr mag/cell
     absolute magnetization    =     2.68 Bohr mag/cell

     iteration # 25     ecut=    70.00 Ry     beta= 0.70
     Davidson diagonalization with overlap
     ethr =  1.91E-05,  avg # of iterations =  4.0

     negative rho (up, down):  2.980E-03 2.578E-01

     total cpu time spent up to now is     2789.4 secs

     total energy              =    -951.87757302 Ry
     Harris-Foulkes estimate   =    -951.86568342 Ry
     estimated scf accuracy    <       0.00984579 Ry

     total magnetization       =    -0.00 Bohr mag/cell
     absolute magnetization    =     0.12 Bohr mag/cell

     iteration # 26     ecut=    70.00 Ry     beta= 0.70
     Davidson diagonalization with overlap
     ethr =  4.56E-06,  avg # of iterations =  3.5

     negative rho (up, down):  4.928E-03 1.830E-01

     total cpu time spent up to now is     2915.9 secs

     total energy              =    -951.87743115 Ry
     Harris-Foulkes estimate   =    -951.88082649 Ry
     estimated scf accuracy    <       0.09558914 Ry

     total magnetization       =    -0.00 Bohr mag/cell
     absolute magnetization    =     0.31 Bohr mag/cell

     iteration # 27     ecut=    70.00 Ry     beta= 0.70
     Davidson diagonalization with overlap
     ethr =  4.56E-06,  avg # of iterations =  3.5

     negative rho (up, down):  1.825E-03 2.325E-01

     total cpu time spent up to now is     3043.8 secs

     total energy              =    -951.88323164 Ry
     Harris-Foulkes estimate   =    -951.88254625 Ry
     estimated scf accuracy    <       0.12887443 Ry

     total magnetization       =    -0.00 Bohr mag/cell
     absolute magnetization    =     0.53 Bohr mag/cell

     iteration # 28     ecut=    70.00 Ry     beta= 0.70
     Davidson diagonalization with overlap
     ethr =  4.56E-06,  avg # of iterations =  4.5

     negative rho (up, down):  2.392E-03 2.561E-01

     total cpu time spent up to now is     3158.6 secs

     total energy              =    -951.87888492 Ry
     Harris-Foulkes estimate   =    -951.88331234 Ry
     estimated scf accuracy    <       0.16328137 Ry

     total magnetization       =    -0.00 Bohr mag/cell
     absolute magnetization    =     0.60 Bohr mag/cell

     iteration # 29     ecut=    70.00 Ry     beta= 0.70
     Davidson diagonalization with overlap
     ethr =  4.56E-06,  avg # of iterations =  3.0

     negative rho (up, down):  1.865E-03 2.972E-01

     total cpu time spent up to now is     3284.8 secs

     total energy              =    -951.86849115 Ry
     Harris-Foulkes estimate   =    -951.88722608 Ry
     estimated scf accuracy    <       0.50789901 Ry

     total magnetization       =     0.06 Bohr mag/cell
     absolute magnetization    =     1.13 Bohr mag/cell

     iteration # 30     ecut=    70.00 Ry     beta= 0.70
     Davidson diagonalization with overlap
     ethr =  4.56E-06,  avg # of iterations =  3.0

     negative rho (up, down):  1.183E-03 1.921E-01

     total cpu time spent up to now is     3409.8 secs

     total energy              =    -951.88063120 Ry
     Harris-Foulkes estimate   =    -951.87749637 Ry
     estimated scf accuracy    <       0.00331920 Ry

     total magnetization       =     0.00 Bohr mag/cell
     absolute magnetization    =     0.09 Bohr mag/cell

     iteration # 31     ecut=    70.00 Ry     beta= 0.70
     Davidson diagonalization with overlap
     ethr =  1.54E-06,  avg # of iterations =  4.5

     negative rho (up, down):  2.922E-03 8.373E-02

     total cpu time spent up to now is     3527.3 secs

     total energy              =    -951.88062838 Ry
     Harris-Foulkes estimate   =    -951.88141430 Ry
     estimated scf accuracy    <       0.02355742 Ry

     total magnetization       =     0.00 Bohr mag/cell
     absolute magnetization    =     0.13 Bohr mag/cell

     iteration # 32     ecut=    70.00 Ry     beta= 0.70
     Davidson diagonalization with overlap
     ethr =  1.54E-06,  avg # of iterations =  4.5

     negative rho (up, down):  1.323E-03 5.789E-02

     total cpu time spent up to now is     3641.1 secs

     total energy              =    -951.88160661 Ry
     Harris-Foulkes estimate   =    -951.88108322 Ry
     estimated scf accuracy    <       0.00017564 Ry

     total magnetization       =    -0.00 Bohr mag/cell
     absolute magnetization    =     0.03 Bohr mag/cell

     iteration # 33     ecut=    70.00 Ry     beta= 0.70
     Davidson diagonalization with overlap
     ethr =  8.13E-08,  avg # of iterations =  3.5

     negative rho (up, down):  1.186E-03 2.694E-02

     total cpu time spent up to now is     3753.6 secs

     total energy              =    -951.88170470 Ry
     Harris-Foulkes estimate   =    -951.88163556 Ry
     estimated scf accuracy    <       0.00026810 Ry

     total magnetization       =     0.00 Bohr mag/cell
     absolute magnetization    =     0.02 Bohr mag/cell

     iteration # 34     ecut=    70.00 Ry     beta= 0.70
     Davidson diagonalization with overlap
     ethr =  8.13E-08,  avg # of iterations =  3.0

     negative rho (up, down):  1.180E-03 3.873E-02

     total cpu time spent up to now is     3866.2 secs

     total energy              =    -951.88170359 Ry
     Harris-Foulkes estimate   =    -951.88174569 Ry
     estimated scf accuracy    <       0.00097029 Ry

     total magnetization       =    -0.00 Bohr mag/cell
     absolute magnetization    =     0.05 Bohr mag/cell

     iteration # 35     ecut=    70.00 Ry     beta= 0.70
     Davidson diagonalization with overlap
     ethr =  8.13E-08,  avg # of iterations =  2.0

     negative rho (up, down):  1.188E-03 3.477E-02

     total cpu time spent up to now is     3969.7 secs

     total energy              =    -951.88172159 Ry
     Harris-Foulkes estimate   =    -951.88171760 Ry
     estimated scf accuracy    <       0.00038240 Ry

     total magnetization       =     0.00 Bohr mag/cell
     absolute magnetization    =     0.03 Bohr mag/cell

     iteration # 36     ecut=    70.00 Ry     beta= 0.70
     Davidson diagonalization with overlap
     ethr =  8.13E-08,  avg # of iterations =  2.0

     negative rho (up, down):  1.219E-03 4.357E-02

     total cpu time spent up to now is     4072.6 secs

     total energy              =    -951.88168701 Ry
     Harris-Foulkes estimate   =    -951.88173309 Ry
     estimated scf accuracy    <       0.00084545 Ry

     total magnetization       =    -0.00 Bohr mag/cell
     absolute magnetization    =     0.04 Bohr mag/cell

     iteration # 37     ecut=    70.00 Ry     beta= 0.70
     Davidson diagonalization with overlap
     ethr =  8.13E-08,  avg # of iterations =  2.0

     negative rho (up, down):  1.173E-03 2.918E-02

     total cpu time spent up to now is     4172.7 secs

     total energy              =    -951.88175945 Ry
     Harris-Foulkes estimate   =    -951.88170370 Ry
     estimated scf accuracy    <       0.00026117 Ry

     total magnetization       =    -0.00 Bohr mag/cell
     absolute magnetization    =     0.02 Bohr mag/cell

     iteration # 38     ecut=    70.00 Ry     beta= 0.70
     Davidson diagonalization with overlap
     ethr =  8.13E-08,  avg # of iterations =  2.5

     negative rho (up, down):  1.204E-03 1.209E-01

     total cpu time spent up to now is     4279.6 secs

     total energy              =    -951.88140727 Ry
     Harris-Foulkes estimate   =    -951.88184348 Ry
     estimated scf accuracy    <       0.00743695 Ry

     total magnetization       =    -0.00 Bohr mag/cell
     absolute magnetization    =     0.13 Bohr mag/cell

     iteration # 39     ecut=    70.00 Ry     beta= 0.70
     Davidson diagonalization with overlap
     ethr =  8.13E-08,  avg # of iterations =  3.0

     negative rho (up, down):  1.172E-03 5.473E-02

     total cpu time spent up to now is     4393.4 secs

     total energy              =    -951.88170655 Ry
     Harris-Foulkes estimate   =    -951.88154929 Ry
     estimated scf accuracy    <       0.00102868 Ry

     total magnetization       =     0.00 Bohr mag/cell
     absolute magnetization    =     0.05 Bohr mag/cell

     iteration # 40     ecut=    70.00 Ry     beta= 0.70
     Davidson diagonalization with overlap
     ethr =  8.13E-08,  avg # of iterations =  2.0

     negative rho (up, down):  1.186E-03 5.066E-02

     total cpu time spent up to now is     4491.4 secs

     total energy              =    -951.88172608 Ry
     Harris-Foulkes estimate   =    -951.88170824 Ry
     estimated scf accuracy    <       0.00100104 Ry

     total magnetization       =    -0.00 Bohr mag/cell
     absolute magnetization    =     0.05 Bohr mag/cell

     iteration # 41     ecut=    70.00 Ry     beta= 0.70
     Davidson diagonalization with overlap
     ethr =  8.13E-08,  avg # of iterations =  2.0

     negative rho (up, down):  1.372E-03 6.787E-02

     total cpu time spent up to now is     4593.5 secs

     total energy              =    -951.88176604 Ry
     Harris-Foulkes estimate   =    -951.88175332 Ry
     estimated scf accuracy    <       0.00328372 Ry

     total magnetization       =    -0.00 Bohr mag/cell
     absolute magnetization    =     0.07 Bohr mag/cell

     iteration # 42     ecut=    70.00 Ry     beta= 0.70
     Davidson diagonalization with overlap
     ethr =  8.13E-08,  avg # of iterations =  3.0

     negative rho (up, down):  1.561E-03 1.498E-01

     total cpu time spent up to now is     4704.2 secs

     total energy              =    -951.88097534 Ry
     Harris-Foulkes estimate   =    -951.88191779 Ry
     estimated scf accuracy    <       0.02019957 Ry

     total magnetization       =    -0.00 Bohr mag/cell
     absolute magnetization    =     0.21 Bohr mag/cell

     iteration # 43     ecut=    70.00 Ry     beta= 0.70
     Davidson diagonalization with overlap
     ethr =  8.13E-08,  avg # of iterations =  3.0

     negative rho (up, down):  1.269E-03 8.149E-02

     total cpu time spent up to now is     4821.0 secs

     total energy              =    -951.88158626 Ry
     Harris-Foulkes estimate   =    -951.88122477 Ry
     estimated scf accuracy    <       0.00060564 Ry

     total magnetization       =     0.00 Bohr mag/cell
     absolute magnetization    =     0.03 Bohr mag/cell

     iteration # 44     ecut=    70.00 Ry     beta= 0.70
     Davidson diagonalization with overlap
     ethr =  8.13E-08,  avg # of iterations =  2.5

     negative rho (up, down):  1.180E-03 3.183E-02

     total cpu time spent up to now is     4923.5 secs

     total energy              =    -951.88171929 Ry
     Harris-Foulkes estimate   =    -951.88160050 Ry
     estimated scf accuracy    <       0.00009632 Ry

     total magnetization       =    -0.00 Bohr mag/cell
     absolute magnetization    =     0.02 Bohr mag/cell

     iteration # 45     ecut=    70.00 Ry     beta= 0.70
     Davidson diagonalization with overlap
     ethr =  4.46E-08,  avg # of iterations =  2.5

     negative rho (up, down):  1.191E-03 3.398E-02

     total cpu time spent up to now is     5024.7 secs

     total energy              =    -951.88170420 Ry
     Harris-Foulkes estimate   =    -951.88172671 Ry
     estimated scf accuracy    <       0.00051271 Ry

     total magnetization       =     0.00 Bohr mag/cell
     absolute magnetization    =     0.03 Bohr mag/cell

     iteration # 46     ecut=    70.00 Ry     beta= 0.70
     Davidson diagonalization with overlap
     ethr =  4.46E-08,  avg # of iterations =  1.5

     negative rho (up, down):  1.174E-03 2.017E-02

     total cpu time spent up to now is     5122.4 secs

     total energy              =    -951.88172619 Ry
     Harris-Foulkes estimate   =    -951.88170974 Ry
     estimated scf accuracy    <       0.00006307 Ry

     total magnetization       =    -0.00 Bohr mag/cell
     absolute magnetization    =     0.02 Bohr mag/cell

     iteration # 47     ecut=    70.00 Ry     beta= 0.70
     Davidson diagonalization with overlap
     ethr =  2.92E-08,  avg # of iterations =  2.0

     negative rho (up, down):  1.176E-03 1.403E-02

     total cpu time spent up to now is     5216.9 secs

     total energy              =    -951.88172873 Ry
     Harris-Foulkes estimate   =    -951.88172922 Ry
     estimated scf accuracy    <       0.00009263 Ry

     total magnetization       =     0.00 Bohr mag/cell
     absolute magnetization    =     0.01 Bohr mag/cell

     iteration # 48     ecut=    70.00 Ry     beta= 0.70
     Davidson diagonalization with overlap
     ethr =  2.92E-08,  avg # of iterations =  2.0

     negative rho (up, down):  1.172E-03 7.646E-03

     total cpu time spent up to now is     5320.0 secs

     total energy              =    -951.88173456 Ry
     Harris-Foulkes estimate   =    -951.88173056 Ry
     estimated scf accuracy    <       0.00000872 Ry

     total magnetization       =     0.00 Bohr mag/cell
     absolute magnetization    =     0.01 Bohr mag/cell

     iteration # 49     ecut=    70.00 Ry     beta= 0.70
     Davidson diagonalization with overlap
     ethr =  4.04E-09,  avg # of iterations =  1.5

     negative rho (up, down):  1.171E-03 9.393E-03

     total cpu time spent up to now is     5427.5 secs

     total energy              =    -951.88173540 Ry
     Harris-Foulkes estimate   =    -951.88173474 Ry
     estimated scf accuracy    <       0.00002582 Ry

     total magnetization       =     0.00 Bohr mag/cell
     absolute magnetization    =     0.01 Bohr mag/cell

     iteration # 50     ecut=    70.00 Ry     beta= 0.70
     Davidson diagonalization with overlap
     ethr =  4.04E-09,  avg # of iterations =  3.0

     negative rho (up, down):  1.178E-03 2.293E-02

     total cpu time spent up to now is     5551.1 secs

     total energy              =    -951.88172947 Ry
     Harris-Foulkes estimate   =    -951.88173963 Ry
     estimated scf accuracy    <       0.00025117 Ry

     total magnetization       =     0.00 Bohr mag/cell
     absolute magnetization    =     0.02 Bohr mag/cell

     iteration # 51     ecut=    70.00 Ry     beta= 0.70
     Davidson diagonalization with overlap
     ethr =  4.04E-09,  avg # of iterations =  2.5

     negative rho (up, down):  1.175E-03 2.996E-02

     total cpu time spent up to now is     5665.1 secs

     total energy              =    -951.88172782 Ry
     Harris-Foulkes estimate   =    -951.88173076 Ry
     estimated scf accuracy    <       0.00026712 Ry

     total magnetization       =    -0.00 Bohr mag/cell
     absolute magnetization    =     0.03 Bohr mag/cell

     iteration # 52     ecut=    70.00 Ry     beta= 0.70
     Davidson diagonalization with overlap
     ethr =  4.04E-09,  avg # of iterations =  1.5

     negative rho (up, down):  1.176E-03 3.364E-02

     total cpu time spent up to now is     5777.6 secs

     total energy              =    -951.88172410 Ry
     Harris-Foulkes estimate   =    -951.88172790 Ry
     estimated scf accuracy    <       0.00028869 Ry

     total magnetization       =    -0.00 Bohr mag/cell
     absolute magnetization    =     0.03 Bohr mag/cell

     iteration # 53     ecut=    70.00 Ry     beta= 0.70
     Davidson diagonalization with overlap
     ethr =  4.04E-09,  avg # of iterations =  2.0

     negative rho (up, down):  1.176E-03 3.224E-02

     total cpu time spent up to now is     5886.4 secs

     total energy              =    -951.88172353 Ry
     Harris-Foulkes estimate   =    -951.88172514 Ry
     estimated scf accuracy    <       0.00028223 Ry

     total magnetization       =    -0.00 Bohr mag/cell
     absolute magnetization    =     0.03 Bohr mag/cell

     iteration # 54     ecut=    70.00 Ry     beta= 0.70
     Davidson diagonalization with overlap
     ethr =  4.04E-09,  avg # of iterations =  2.0

     negative rho (up, down):  1.173E-03 2.947E-02

     total cpu time spent up to now is     5993.5 secs

     total energy              =    -951.88171889 Ry
     Harris-Foulkes estimate   =    -951.88172390 Ry
     estimated scf accuracy    <       0.00019411 Ry

     total magnetization       =    -0.00 Bohr mag/cell
     absolute magnetization    =     0.02 Bohr mag/cell

     iteration # 55     ecut=    70.00 Ry     beta= 0.70
     Davidson diagonalization with overlap
     ethr =  4.04E-09,  avg # of iterations =  2.0

     negative rho (up, down):  1.171E-03 1.041E-02

     total cpu time spent up to now is     6120.7 secs

     total energy              =    -951.88173339 Ry
     Harris-Foulkes estimate   =    -951.88172264 Ry
     estimated scf accuracy    <       0.00000257 Ry

     total magnetization       =     0.00 Bohr mag/cell
     absolute magnetization    =     0.00 Bohr mag/cell

     iteration # 56     ecut=    70.00 Ry     beta= 0.70
     Davidson diagonalization with overlap
     ethr =  1.19E-09,  avg # of iterations =  3.0

     negative rho (up, down):  1.171E-03 4.452E-03

     total cpu time spent up to now is     6240.2 secs

     total energy              =    -951.88173458 Ry
     Harris-Foulkes estimate   =    -951.88173413 Ry
     estimated scf accuracy    <       0.00001315 Ry

     total magnetization       =     0.00 Bohr mag/cell
     absolute magnetization    =     0.01 Bohr mag/cell

     iteration # 57     ecut=    70.00 Ry     beta= 0.70
     Davidson diagonalization with overlap
     ethr =  1.19E-09,  avg # of iterations =  2.0

     negative rho (up, down):  1.172E-03 4.183E-03

     total cpu time spent up to now is     6355.7 secs

     total energy              =    -951.88173490 Ry
     Harris-Foulkes estimate   =    -951.88173500 Ry
     estimated scf accuracy    <       0.00000571 Ry

     total magnetization       =     0.00 Bohr mag/cell
     absolute magnetization    =     0.00 Bohr mag/cell

     iteration # 58     ecut=    70.00 Ry     beta= 0.70
     Davidson diagonalization with overlap
     ethr =  1.19E-09,  avg # of iterations =  2.0

     negative rho (up, down):  1.171E-03 4.672E-03

     total cpu time spent up to now is     6471.1 secs

     total energy              =    -951.88173528 Ry
     Harris-Foulkes estimate   =    -951.88173511 Ry
     estimated scf accuracy    <       0.00001039 Ry

     total magnetization       =     0.00 Bohr mag/cell
     absolute magnetization    =     0.01 Bohr mag/cell

     iteration # 59     ecut=    70.00 Ry     beta= 0.70
     Davidson diagonalization with overlap
     ethr =  1.19E-09,  avg # of iterations =  2.0

     negative rho (up, down):  1.171E-03 8.931E-03

     total cpu time spent up to now is     6578.4 secs

     total energy              =    -951.88173359 Ry
     Harris-Foulkes estimate   =    -951.88173539 Ry
     estimated scf accuracy    <       0.00002860 Ry

     total magnetization       =    -0.00 Bohr mag/cell
     absolute magnetization    =     0.01 Bohr mag/cell

     iteration # 60     ecut=    70.00 Ry     beta= 0.70
     Davidson diagonalization with overlap
     ethr =  1.19E-09,  avg # of iterations =  2.5

     negative rho (up, down):  1.171E-03 7.407E-05

     Magnetic moment per site:
     atom:    1    charge:    0.2117    magn:    0.0000    constr:    0.0000
     atom:    2    charge:    0.2117    magn:   -0.0000    constr:    0.0000
     atom:    3    charge:    1.7155    magn:   -0.0000    constr:    0.0000
     atom:    4    charge:    1.7152    magn:    0.0000    constr:    0.0000
     atom:    5    charge:    1.7168    magn:   -0.0000    constr:    0.0000
     atom:    6    charge:    1.7146    magn:    0.0000    constr:    0.0000
     atom:    7    charge:    1.7168    magn:   -0.0000    constr:    0.0000
     atom:    8    charge:    1.7153    magn:    0.0000    constr:    0.0000
     atom:    9    charge:    1.7155    magn:   -0.0000    constr:    0.0000
     atom:   10    charge:    1.7177    magn:   -0.0000    constr:    0.0000
     atom:   11    charge:    1.7156    magn:    0.0000    constr:    0.0000
     atom:   12    charge:    1.7177    magn:   -0.0000    constr:    0.0000
     atom:   13    charge:    1.7156    magn:    0.0000    constr:    0.0000
     atom:   14    charge:    1.7175    magn:    0.0000    constr:    0.0000
     atom:   15    charge:    1.7117    magn:   -0.0000    constr:    0.0000
     atom:   16    charge:    1.7113    magn:    0.0000    constr:    0.0000
     atom:   17    charge:    1.7207    magn:   -0.0000    constr:    0.0000
     atom:   18    charge:    1.7114    magn:    0.0000    constr:    0.0000
     atom:   19    charge:    1.7118    magn:   -0.0000    constr:    0.0000
     atom:   20    charge:    1.7176    magn:    0.0000    constr:    0.0000
     atom:   21    charge:    1.7156    magn:    0.0000    constr:    0.0000
     atom:   22    charge:    1.7177    magn:   -0.0000    constr:    0.0000
     atom:   23    charge:    1.7155    magn:   -0.0000    constr:    0.0000
     atom:   24    charge:    1.7153    magn:    0.0000    constr:    0.0000
     atom:   25    charge:    1.7117    magn:   -0.0000    constr:    0.0000
     atom:   26    charge:    1.7113    magn:    0.0000    constr:    0.0000
     atom:   27    charge:    1.8189    magn:   -0.0000    constr:    0.0000
     atom:   28    charge:   13.4063    magn:   -0.0000    constr:    0.0000
     atom:   29    charge:    1.8192    magn:    0.0000    constr:    0.0000
     atom:   30    charge:    1.7114    magn:    0.0000    constr:    0.0000
     atom:   31    charge:    1.7118    magn:   -0.0000    constr:    0.0000
     atom:   32    charge:    1.7153    magn:    0.0000    constr:    0.0000
     atom:   33    charge:    1.7168    magn:   -0.0000    constr:    0.0000
     atom:   34    charge:    1.7154    magn:    0.0000    constr:    0.0000
     atom:   35    charge:    1.7168    magn:   -0.0000    constr:    0.0000
     atom:   36    charge:    1.7146    magn:    0.0000    constr:    0.0000
     atom:   37    charge:    1.7207    magn:   -0.0000    constr:    0.0000
     atom:   38    charge:    1.7114    magn:    0.0000    constr:    0.0000
     atom:   39    charge:    1.8191    magn:   -0.0000    constr:    0.0000
     atom:   40    charge:    1.7113    magn:    0.0000    constr:    0.0000
     atom:   41    charge:    1.7207    magn:   -0.0000    constr:    0.0000
     atom:   42    charge:    1.7146    magn:    0.0000    constr:    0.0000
     atom:   43    charge:    1.7168    magn:   -0.0000    constr:    0.0000
     atom:   44    charge:    1.7154    magn:    0.0000    constr:    0.0000
     atom:   45    charge:    1.7213    magn:   -0.0000    constr:    0.0000
     atom:   46    charge:    1.7154    magn:    0.0000    constr:    0.0000
     atom:   47    charge:    1.7168    magn:   -0.0000    constr:    0.0000
     atom:   48    charge:    1.7152    magn:    0.0000    constr:    0.0000
     atom:   49    charge:    1.7118    magn:   -0.0000    constr:    0.0000
     atom:   50    charge:    1.7176    magn:    0.0000    constr:    0.0000
     atom:   51    charge:    1.7118    magn:   -0.0000    constr:    0.0000
     atom:   52    charge:    1.7152    magn:    0.0000    constr:    0.0000

     total cpu time spent up to now is     6676.7 secs

     End of self-consistent calculation

 ------ SPIN UP ------------


          k = 0.0000 0.0000 0.0000 ( 87777 PWs)   bands (ev):

  -107.8661 -69.0377 -69.0376 -66.9460 -19.8114 -18.9927 -18.9903 -18.8748
   -18.8742 -18.7894 -18.7180 -17.1472 -17.1465 -17.1142 -17.0645 -17.0634
   -16.7378 -16.2966 -16.2962 -16.1510 -16.1504 -16.1377 -15.6530 -14.2919
   -14.2919 -14.1344 -14.0023 -14.0021 -13.4979 -13.1138 -13.1136 -13.0623
   -12.8850 -12.8843 -12.4847 -12.0566 -12.0563 -11.6973 -11.5526 -11.5524
   -10.9161 -10.4074 -10.4070  -9.5591  -9.3507  -9.3505  -9.2121  -9.1971
    -9.1970  -9.1823  -8.9354  -8.9352  -8.5752  -8.5745  -8.4351  -7.9483
    -7.8861  -7.8203  -7.8147  -7.6461  -7.5248  -7.5246  -7.4311  -7.4311
    -7.0049  -6.8292  -6.8093  -6.8085  -6.7345  -6.6042  -6.6038  -6.5409
    -6.5365  -6.5358  -6.5054  -6.4568  -6.4064  -6.4041  -6.3032  -6.2700
    -6.2696  -5.5315  -5.5311  -5.0155  -4.9351  -4.8264  -4.8261  -4.7451
    -4.7041  -4.7034  -4.3993  -4.3841  -4.3832  -3.8237  -3.8229  -3.7512
    -3.7438  -3.7436  -3.6013  -3.4037  -3.4013  -3.3024  -1.8783  -1.7932
    -1.7929  -1.5743  -1.5734  -1.1249   0.1305   0.1363   0.9176   0.9749
     0.9758   1.2247   1.2280   1.5734   2.5052   2.8131   2.8153   2.8675
     3.0379   3.0531   3.4047   3.4917   3.6109   3.7429   3.7451   3.7724
     3.9379   4.2721

     occupation numbers 
     1.0000   1.0000   1.0000   1.0000   1.0000   1.0000   1.0000   1.0000
     1.0000   1.0000   1.0000   1.0000   1.0000   1.0000   1.0000   1.0000
     1.0000   1.0000   1.0000   1.0000   1.0000   1.0000   1.0000   1.0000
     1.0000   1.0000   1.0000   1.0000   1.0000   1.0000   1.0000   1.0000
     1.0000   1.0000   1.0000   1.0000   1.0000   1.0000   1.0000   1.0000
     1.0000   1.0000   1.0000   1.0000   1.0000   1.0000   1.0000   1.0000
     1.0000   1.0000   1.0000   1.0000   1.0000   1.0000   1.0000   1.0000
     1.0000   1.0000   1.0000   1.0000   1.0000   1.0000   1.0000   1.0000
     1.0000   1.0000   1.0000   1.0000   1.0000   1.0000   1.0000   1.0000
     1.0000   1.0000   1.0000   1.0000   1.0000   1.0000   1.0000   1.0000
     1.0000   1.0000   1.0000   1.0000   1.0000   1.0000   1.0000   1.0000
     1.0000   1.0000   1.0000   1.0000   1.0000   1.0000   1.0000   1.0000
     1.0000   1.0000   1.0000   1.0000   1.0000   1.0000   1.0000   1.0000
     1.0000   1.0000   1.0000   1.0000   0.0000   0.0000   0.0000   0.0000
     0.0000   0.0000   0.0000   0.0000   0.0000   0.0000   0.0000   0.0000
     0.0000   0.0000   0.0000   0.0000   0.0000   0.0000   0.0000   0.0000
     0.0000   0.0000

 ------ SPIN DOWN ----------


          k = 0.0000 0.0000 0.0000 ( 87777 PWs)   bands (ev):

  -107.8661 -69.0377 -69.0376 -66.9461 -19.8114 -18.9927 -18.9903 -18.8748
   -18.8742 -18.7894 -18.7180 -17.1472 -17.1465 -17.1142 -17.0645 -17.0634
   -16.7378 -16.2966 -16.2962 -16.1510 -16.1504 -16.1377 -15.6530 -14.2919
   -14.2919 -14.1344 -14.0023 -14.0021 -13.4979 -13.1138 -13.1135 -13.0623
   -12.8850 -12.8843 -12.4847 -12.0566 -12.0564 -11.6973 -11.5526 -11.5524
   -10.9161 -10.4074 -10.4070  -9.5591  -9.3507  -9.3505  -9.2121  -9.1971
    -9.1970  -9.1823  -8.9354  -8.9352  -8.5752  -8.5744  -8.4351  -7.9483
    -7.8861  -7.8203  -7.8147  -7.6461  -7.5248  -7.5247  -7.4311  -7.4311
    -7.0049  -6.8292  -6.8093  -6.8085  -6.7345  -6.6042  -6.6038  -6.5409
    -6.5365  -6.5358  -6.5054  -6.4568  -6.4064  -6.4041  -6.3032  -6.2701
    -6.2696  -5.5315  -5.5311  -5.0155  -4.9351  -4.8264  -4.8261  -4.7451
    -4.7041  -4.7034  -4.3993  -4.3841  -4.3832  -3.8237  -3.8229  -3.7512
    -3.7438  -3.7436  -3.6013  -3.4037  -3.4013  -3.3024  -1.8783  -1.7932
    -1.7928  -1.5743  -1.5734  -1.1250   0.1303   0.1365   0.9176   0.9749
     0.9758   1.2247   1.2280   1.5734   2.5053   2.8131   2.8153   2.8675
     3.0379   3.0531   3.4047   3.4917   3.6109   3.7429   3.7453   3.7726
     3.9380   4.2721

     occupation numbers 
     1.0000   1.0000   1.0000   1.0000   1.0000   1.0000   1.0000   1.0000
     1.0000   1.0000   1.0000   1.0000   1.0000   1.0000   1.0000   1.0000
     1.0000   1.0000   1.0000   1.0000   1.0000   1.0000   1.0000   1.0000
     1.0000   1.0000   1.0000   1.0000   1.0000   1.0000   1.0000   1.0000
     1.0000   1.0000   1.0000   1.0000   1.0000   1.0000   1.0000   1.0000
     1.0000   1.0000   1.0000   1.0000   1.0000   1.0000   1.0000   1.0000
     1.0000   1.0000   1.0000   1.0000   1.0000   1.0000   1.0000   1.0000
     1.0000   1.0000   1.0000   1.0000   1.0000   1.0000   1.0000   1.0000
     1.0000   1.0000   1.0000   1.0000   1.0000   1.0000   1.0000   1.0000
     1.0000   1.0000   1.0000   1.0000   1.0000   1.0000   1.0000   1.0000
     1.0000   1.0000   1.0000   1.0000   1.0000   1.0000   1.0000   1.0000
     1.0000   1.0000   1.0000   1.0000   1.0000   1.0000   1.0000   1.0000
     1.0000   1.0000   1.0000   1.0000   1.0000   1.0000   1.0000   1.0000
     1.0000   1.0000   1.0000   1.0000   0.0000   0.0000   0.0000   0.0000
     0.0000   0.0000   0.0000   0.0000   0.0000   0.0000   0.0000   0.0000
     0.0000   0.0000   0.0000   0.0000   0.0000   0.0000   0.0000   0.0000
     0.0000   0.0000

     the Fermi energy is    -0.9597 ev

!    total energy              =    -951.88173520 Ry
     Harris-Foulkes estimate   =    -951.88173408 Ry
     estimated scf accuracy    <       0.00000081 Ry

     The total energy is the sum of the following terms:

     one-electron contribution =   -2985.68569630 Ry
     hartree contribution      =    1535.63799854 Ry
     xc contribution           =    -265.74359599 Ry
     ewald contribution        =     763.90955855 Ry
     smearing contrib. (-TS)   =       0.00000000 Ry

     total magnetization       =     0.00 Bohr mag/cell
     absolute magnetization    =     0.00 Bohr mag/cell

     convergence has been achieved in  60 iterations

     Writing output data file niquel-top-distance-2.8.save/

     init_run     :     78.02s CPU     79.11s WALL (       1 calls)
     electrons    :   6487.81s CPU   6596.63s WALL (       1 calls)

     Called by init_run:
     wfcinit      :     41.21s CPU     41.47s WALL (       1 calls)
     wfcinit:atom :      0.04s CPU      0.09s WALL (       2 calls)
     wfcinit:wfcr :     40.83s CPU     40.97s WALL (       2 calls)
     potinit      :     15.09s CPU     15.45s WALL (       1 calls)
     hinit0       :     13.49s CPU     13.51s WALL (       1 calls)

     Called by electrons:
     c_bands      :   4169.62s CPU   4191.28s WALL (      60 calls)
     sum_band     :   1362.44s CPU   1397.40s WALL (      60 calls)
     v_of_rho     :    457.37s CPU    477.87s WALL (      61 calls)
     v_h          :      5.03s CPU      5.18s WALL (      61 calls)
     v_xc         :    452.33s CPU    472.69s WALL (      61 calls)
     newd         :    466.85s CPU    498.38s WALL (      61 calls)
     mix_rho      :     31.02s CPU     31.50s WALL (      60 calls)

     Called by c_bands:
     init_us_2    :     11.95s CPU     12.02s WALL (     242 calls)
     cegterg      :   4137.43s CPU   4158.94s WALL (     120 calls)

     Called by sum_band:
     sum_band:bec :      0.10s CPU      0.10s WALL (     120 calls)
     addusdens    :    838.51s CPU    870.40s WALL (      60 calls)

     Called by *egterg:
     h_psi        :   2172.57s CPU   2187.53s WALL (     459 calls)
     s_psi        :    718.24s CPU    718.50s WALL (     459 calls)
     g_psi        :      2.23s CPU      2.24s WALL (     337 calls)
     cdiaghg      :     32.79s CPU     32.80s WALL (     457 calls)
     cegterg:over :    503.62s CPU    503.84s WALL (     337 calls)
     cegterg:upda :    304.95s CPU    306.76s WALL (     337 calls)
     cegterg:last :    218.10s CPU    218.15s WALL (     120 calls)

     Called by h_psi:
     h_psi:pot    :   2170.14s CPU   2182.41s WALL (     459 calls)
     h_psi:calbec :    723.39s CPU    723.64s WALL (     459 calls)
     vloc_psi     :    728.67s CPU    740.48s WALL (     459 calls)
     add_vuspsi   :    718.07s CPU    718.29s WALL (     459 calls)

     General routines
     calbec       :   1038.27s CPU   1038.67s WALL (     579 calls)
     fft          :    268.88s CPU    277.24s WALL (    4569 calls)
     ffts         :      4.88s CPU      5.06s WALL (     242 calls)
     fftw         :    770.75s CPU    783.70s WALL (   87534 calls)
     interpolate  :     11.05s CPU     11.41s WALL (     122 calls)

     Parallel routines
     fft_scatt_xy :    195.23s CPU    197.42s WALL (   92345 calls)
     fft_scatt_yz :    334.76s CPU    350.74s WALL (   92345 calls)

     PWSCF        :      1h49m CPU      1h51m WALL


   This run was terminated on:  22:52:55  30Dec2022            

=------------------------------------------------------------------------------=
   JOB DONE.
=------------------------------------------------------------------------------=
