
     Program PWSCF v.6.4.1 starts on 30Dec2022 at  9:53:45 

     This program is part of the open-source Quantum ESPRESSO suite
     for quantum simulation of materials; please cite
         "P. Giannozzi et al., J. Phys.:Condens. Matter 21 395502 (2009);
         "P. Giannozzi et al., J. Phys.:Condens. Matter 29 465901 (2017);
          URL http://www.quantum-espresso.org", 
     in publications or presentations arising from this work. More details at
     http://www.quantum-espresso.org/quote

     Parallel version (MPI), running on     6 processors

     MPI processes distributed on     1 nodes
     R & G space division:  proc/nbgrp/npool/nimage =       6
     Reading input from distance-4.5.in

     Current dimensions of program PWSCF are:
     Max number of different atomic species (ntypx) = 10
     Max number of k-points (npk) =  40000
     Max angular momentum in pseudopotentials (lmaxx) =  3

     IMPORTANT: XC functional enforced from input :
     Exchange-correlation      = RVV10 ( 1  4 13  4 3 0)
     Any further DFT definition will be discarded
     Please, verify this is what you really want

               file H.pbe-rrkjus.UPF: wavefunction(s)  1S renormalized

     Subspace diagonalization in iterative solution of the eigenvalue problem:
     a serial algorithm will be used


     Parallelization info
     --------------------
     sticks:   dense  smooth     PW     G-vecs:    dense   smooth      PW
     Min        3051    1746    432               270999   117096   14629
     Max        3053    1747    437               271001   117099   14630
     Sum       18313   10477   2611              1626001   702581   87777



     bravais-lattice index     =            4
     lattice parameter (alat)  =      23.2937  a.u.
     unit-cell volume          =    8879.8548 (a.u.)^3
     number of atoms/cell      =           52
     number of atomic types    =            3
     number of electrons       =       216.00
     number of Kohn-Sham states=          130
     kinetic-energy cutoff     =      70.0000  Ry
     charge density cutoff     =     490.0000  Ry
     convergence threshold     =      1.0E-06
     mixing beta               =       0.7000
     number of iterations used =            8  plain     mixing
     Exchange-correlation      = RVV10 ( 1  4 13  4 3 0)

     celldm(1)=  23.293684  celldm(2)=   0.000000  celldm(3)=   0.811261
     celldm(4)=   0.000000  celldm(5)=   0.000000  celldm(6)=   0.000000

     crystal axes: (cart. coord. in units of alat)
               a(1) = (   1.000000   0.000000   0.000000 )  
               a(2) = (  -0.500000   0.866025   0.000000 )  
               a(3) = (   0.000000   0.000000   0.811261 )  

     reciprocal axes: (cart. coord. in units 2 pi/alat)
               b(1) = (  1.000000  0.577350 -0.000000 )  
               b(2) = (  0.000000  1.154701  0.000000 )  
               b(3) = (  0.000000 -0.000000  1.232649 )  


     PseudoPot. # 1 for H  read from file:
     /home/cristian/Escritorio/Proyecto_Grafeno/pseudopotenciales/H.pbe-rrkjus.UPF
     MD5 check sum: 7cc9d459525c9a0585f487a71c3c9563
     Pseudo is Ultrasoft, Zval =  1.0
     Generated by new atomic code, or converted to UPF format
     Using radial grid of 1061 points,  2 beta functions with: 
                l(1) =   0
                l(2) =   0
     Q(r) pseudized with 0 coefficients 


     PseudoPot. # 2 for C  read from file:
     /home/cristian/Escritorio/Proyecto_Grafeno/pseudopotenciales/C.pbe-n-rrkjus_psl.1.0.0.UPF
     MD5 check sum: 1fdd950c42eb37d8afe3dd2f8d12311e
     Pseudo is Ultrasoft + core correction, Zval =  4.0
     Generated using "atomic" code by A. Dal Corso v.6.3MaX
     Using radial grid of 1073 points,  4 beta functions with: 
                l(1) =   0
                l(2) =   0
                l(3) =   1
                l(4) =   1
     Q(r) pseudized with 0 coefficients 


     PseudoPot. # 3 for Ni read from file:
     /home/cristian/Escritorio/Proyecto_Grafeno/pseudopotenciales/Ni.pbe-spn-rrkjus_psl.1.0.0.UPF
     MD5 check sum: 8b3fc9aac6dafe35f580d41bb18c3945
     Pseudo is Ultrasoft + core correction, Zval = 18.0
     Generated using "atomic" code by A. Dal Corso v.6.3
     Using radial grid of 1195 points,  6 beta functions with: 
                l(1) =   0
                l(2) =   0
                l(3) =   1
                l(4) =   1
                l(5) =   2
                l(6) =   2
     Q(r) pseudized with 0 coefficients 


     vdW kernel table read from file rVV10_kernel_table
     MD5 check sum: b8e2538accc0c0b3206b45ba4daaba6c

     atomic species   valence    mass     pseudopotential
        H              1.00     1.00794     H ( 1.00)
        C              4.00    12.01070     C ( 1.00)
        Ni            18.00    58.69340     Ni( 1.00)

     Starting magnetic structure 
     atomic species   magnetization
        H            0.500
        C            0.300
        Ni           0.800

     No symmetry found


                                    s                        frac. trans.

      isym =  1     identity                                     

 cryst.   s( 1) = (     1          0          0      )
                  (     0          1          0      )
                  (     0          0          1      )

 cart.    s( 1) = (  1.0000000  0.0000000  0.0000000 )
                  (  0.0000000  1.0000000  0.0000000 )
                  (  0.0000000  0.0000000  1.0000000 )


     point group C_1 (1)    
     there are  1 classes
     the character table:

       E    
A      1.00

     the symmetry operations in each class and the name of the first element:

     E        1
          identity                                               

   Cartesian axes

     site n.     atom                  positions (alat units)
         1           H   tau(   1) = (   0.1694937   0.4618802   0.3650675  )
         2           H   tau(   2) = (   0.2305063   0.4618802   0.3650675  )
         3           C   tau(   3) = (   0.0000000   0.0000000   0.0000000  )
         4           C   tau(   4) = (   0.0000000   0.1154701   0.0000000  )
         5           C   tau(   5) = (  -0.1000000   0.1732051   0.0000000  )
         6           C   tau(   6) = (  -0.1000000   0.2886751   0.0000000  )
         7           C   tau(   7) = (  -0.2000000   0.3464102   0.0000000  )
         8           C   tau(   8) = (  -0.2000000   0.4618802   0.0000000  )
         9           C   tau(   9) = (  -0.3000000   0.5196152   0.0000000  )
        10           C   tau(  10) = (  -0.3000000   0.6350853   0.0000000  )
        11           C   tau(  11) = (  -0.4000000   0.6928203   0.0000000  )
        12           C   tau(  12) = (  -0.4000000   0.8082904   0.0000000  )
        13           C   tau(  13) = (   0.2000000   0.0000000   0.0000000  )
        14           C   tau(  14) = (   0.2000000   0.1154701   0.0000000  )
        15           C   tau(  15) = (   0.1000000   0.1732051   0.0000000  )
        16           C   tau(  16) = (   0.1000000   0.2886751   0.0000000  )
        17           C   tau(  17) = (   0.0000000   0.3464102   0.0000000  )
        18           C   tau(  18) = (   0.0000000   0.4618802   0.0000000  )
        19           C   tau(  19) = (  -0.1000000   0.5196152   0.0000000  )
        20           C   tau(  20) = (  -0.1000000   0.6350853   0.0000000  )
        21           C   tau(  21) = (  -0.2000000   0.6928203   0.0000000  )
        22           C   tau(  22) = (  -0.2000000   0.8082904   0.0000000  )
        23           C   tau(  23) = (   0.4000000   0.0000000   0.0000000  )
        24           C   tau(  24) = (   0.4000000   0.1154701   0.0000000  )
        25           C   tau(  25) = (   0.3000000   0.1732051   0.0000000  )
        26           C   tau(  26) = (   0.3000000   0.2886751   0.0000000  )
        27           C   tau(  27) = (   0.2000000   0.3464102   0.0000000  )
        28           Ni  tau(  28) = (   0.2000000   0.4618802   0.0000000  )
        29           C   tau(  29) = (   0.1000000   0.5196152   0.0000000  )
        30           C   tau(  30) = (   0.1000000   0.6350853   0.0000000  )
        31           C   tau(  31) = (   0.0000000   0.6928203   0.0000000  )
        32           C   tau(  32) = (   0.0000000   0.8082904   0.0000000  )
        33           C   tau(  33) = (   0.6000000   0.0000000   0.0000000  )
        34           C   tau(  34) = (   0.6000000   0.1154701   0.0000000  )
        35           C   tau(  35) = (   0.5000000   0.1732051   0.0000000  )
        36           C   tau(  36) = (   0.5000000   0.2886751   0.0000000  )
        37           C   tau(  37) = (   0.4000000   0.3464102   0.0000000  )
        38           C   tau(  38) = (   0.4000000   0.4618802   0.0000000  )
        39           C   tau(  39) = (   0.3000000   0.5196152   0.0000000  )
        40           C   tau(  40) = (   0.3000000   0.6350853   0.0000000  )
        41           C   tau(  41) = (   0.2000000   0.6928203   0.0000000  )
        42           C   tau(  42) = (   0.2000000   0.8082904   0.0000000  )
        43           C   tau(  43) = (   0.8000000   0.0000000   0.0000000  )
        44           C   tau(  44) = (   0.8000000   0.1154701   0.0000000  )
        45           C   tau(  45) = (   0.7000000   0.1732051   0.0000000  )
        46           C   tau(  46) = (   0.7000000   0.2886751   0.0000000  )
        47           C   tau(  47) = (   0.6000000   0.3464102   0.0000000  )
        48           C   tau(  48) = (   0.6000000   0.4618802   0.0000000  )
        49           C   tau(  49) = (   0.5000000   0.5196152   0.0000000  )
        50           C   tau(  50) = (   0.5000000   0.6350853   0.0000000  )
        51           C   tau(  51) = (   0.4000000   0.6928203   0.0000000  )
        52           C   tau(  52) = (   0.4000000   0.8082904   0.0000000  )

   Crystallographic axes

     site n.     atom                  positions (cryst. coord.)
         1           H   tau(   1) = (  0.4361603  0.5333333  0.4500000  )
         2           H   tau(   2) = (  0.4971730  0.5333333  0.4500000  )
         3           C   tau(   3) = (  0.0000000  0.0000000  0.0000000  )
         4           C   tau(   4) = (  0.0666667  0.1333333  0.0000000  )
         5           C   tau(   5) = (  0.0000000  0.2000000  0.0000000  )
         6           C   tau(   6) = (  0.0666667  0.3333333  0.0000000  )
         7           C   tau(   7) = (  0.0000000  0.4000000  0.0000000  )
         8           C   tau(   8) = (  0.0666667  0.5333333  0.0000000  )
         9           C   tau(   9) = (  0.0000000  0.6000000  0.0000000  )
        10           C   tau(  10) = (  0.0666667  0.7333333  0.0000000  )
        11           C   tau(  11) = (  0.0000000  0.8000000  0.0000000  )
        12           C   tau(  12) = (  0.0666667  0.9333333  0.0000000  )
        13           C   tau(  13) = (  0.2000000  0.0000000  0.0000000  )
        14           C   tau(  14) = (  0.2666667  0.1333333  0.0000000  )
        15           C   tau(  15) = (  0.2000000  0.2000000  0.0000000  )
        16           C   tau(  16) = (  0.2666667  0.3333333  0.0000000  )
        17           C   tau(  17) = (  0.2000000  0.4000000  0.0000000  )
        18           C   tau(  18) = (  0.2666667  0.5333333  0.0000000  )
        19           C   tau(  19) = (  0.2000000  0.6000000  0.0000000  )
        20           C   tau(  20) = (  0.2666667  0.7333333  0.0000000  )
        21           C   tau(  21) = (  0.2000000  0.8000000  0.0000000  )
        22           C   tau(  22) = (  0.2666667  0.9333333  0.0000000  )
        23           C   tau(  23) = (  0.4000000  0.0000000  0.0000000  )
        24           C   tau(  24) = (  0.4666667  0.1333333  0.0000000  )
        25           C   tau(  25) = (  0.4000000  0.2000000  0.0000000  )
        26           C   tau(  26) = (  0.4666667  0.3333333  0.0000000  )
        27           C   tau(  27) = (  0.4000000  0.4000000  0.0000000  )
        28           Ni  tau(  28) = (  0.4666667  0.5333333  0.0000000  )
        29           C   tau(  29) = (  0.4000000  0.6000000  0.0000000  )
        30           C   tau(  30) = (  0.4666667  0.7333333  0.0000000  )
        31           C   tau(  31) = (  0.4000000  0.8000000  0.0000000  )
        32           C   tau(  32) = (  0.4666667  0.9333333  0.0000000  )
        33           C   tau(  33) = (  0.6000000  0.0000000  0.0000000  )
        34           C   tau(  34) = (  0.6666667  0.1333333  0.0000000  )
        35           C   tau(  35) = (  0.6000000  0.2000000  0.0000000  )
        36           C   tau(  36) = (  0.6666667  0.3333333  0.0000000  )
        37           C   tau(  37) = (  0.6000000  0.4000000  0.0000000  )
        38           C   tau(  38) = (  0.6666667  0.5333333  0.0000000  )
        39           C   tau(  39) = (  0.6000000  0.6000000  0.0000000  )
        40           C   tau(  40) = (  0.6666667  0.7333333  0.0000000  )
        41           C   tau(  41) = (  0.6000000  0.8000000  0.0000000  )
        42           C   tau(  42) = (  0.6666667  0.9333333  0.0000000  )
        43           C   tau(  43) = (  0.8000000  0.0000000  0.0000000  )
        44           C   tau(  44) = (  0.8666667  0.1333333  0.0000000  )
        45           C   tau(  45) = (  0.8000000  0.2000000  0.0000000  )
        46           C   tau(  46) = (  0.8666667  0.3333333  0.0000000  )
        47           C   tau(  47) = (  0.8000000  0.4000000  0.0000000  )
        48           C   tau(  48) = (  0.8666667  0.5333333  0.0000000  )
        49           C   tau(  49) = (  0.8000000  0.6000000  0.0000000  )
        50           C   tau(  50) = (  0.8666667  0.7333333  0.0000000  )
        51           C   tau(  51) = (  0.8000000  0.8000000  0.0000000  )
        52           C   tau(  52) = (  0.8666667  0.9333333  0.0000000  )

     number of k points=     1  Marzari-Vanderbilt smearing, width (Ry)=  0.0010
                       cart. coord. in units 2pi/alat
        k(    1) = (   0.0000000   0.0000000   0.0000000), wk =   1.0000000

                       cryst. coord.
        k(    1) = (   0.0000000   0.0000000   0.0000000), wk =   1.0000000

     Dense  grid:  1626001 G-vectors     FFT dimensions: ( 180, 180, 135)

     Smooth grid:   702581 G-vectors     FFT dimensions: ( 125, 125, 108)

     Dynamical RAM for                 wfc:      29.03 MB

     Dynamical RAM for     wfc (w. buffer):      87.10 MB

     Dynamical RAM for           str. fact:      12.41 MB

     Dynamical RAM for           local pot:       0.00 MB

     Dynamical RAM for          nlocal pot:      92.46 MB

     Dynamical RAM for                qrad:      19.73 MB

     Dynamical RAM for          rho,v,vnew:      58.92 MB

     Dynamical RAM for               rhoin:      19.64 MB

     Dynamical RAM for            rho*nmix:     132.32 MB

     Dynamical RAM for           G-vectors:      16.40 MB

     Dynamical RAM for          h,s,v(r/c):      12.38 MB

     Dynamical RAM for          <psi|beta>:       0.82 MB

     Dynamical RAM for                 psi:     116.14 MB

     Dynamical RAM for                hpsi:     116.14 MB

     Dynamical RAM for                spsi:     116.14 MB

     Dynamical RAM for      wfcinit/wfcrot:      93.90 MB

     Dynamical RAM for           addusdens:     975.89 MB

     Estimated static dynamical RAM per process >     489.64 MB

     Estimated max dynamical RAM per process >       1.43 GB

     Estimated total dynamical RAM >       8.59 GB
     Generating pointlists ...
     new r_m :   0.0252 (alat units)  0.5862 (a.u.) for type    1
     new r_m :   0.0476 (alat units)  1.1095 (a.u.) for type    2
     new r_m :   0.0476 (alat units)  1.1095 (a.u.) for type    3

     Check: negative core charge=   -0.000002

     Initial potential from superposition of free atoms

     starting charge  215.80530, renormalised to  216.00000

     negative rho (up, down):  1.099E-04 1.093E-02


---------------------------------------------------------------------------------
Carrying out rVV10 run using the following parameters:
Nqs =      20    Nr_points =    1024   r_max =   100.000
b_value =  6.30000    beta =  0.00901
     q_mesh =  0.00010000  0.00030000  0.00058939  0.00100810
               0.00161396  0.00249058  0.00375900  0.00559430
               0.00824984  0.01209221  0.01765183  0.02569619
               0.03733578  0.05417739  0.07854596  0.11380545
               0.16482331  0.23864234  0.34545298  0.50000000

Gradients computed in Reciprocal space

---------------------------------------------------------------------------------


     Starting wfcs are  208 randomized atomic wfcs

     total cpu time spent up to now is       77.2 secs

     Self-consistent Calculation

     iteration #  1     ecut=    70.00 Ry     beta= 0.70
     Davidson diagonalization with overlap
     ethr =  1.00E-02,  avg # of iterations =  4.5

     negative rho (up, down):  1.972E-04 9.944E-03

     total cpu time spent up to now is      208.2 secs

     total energy              =    -946.56648918 Ry
     Harris-Foulkes estimate   =    -949.77698336 Ry
     estimated scf accuracy    <      14.36041154 Ry

     total magnetization       =     6.00 Bohr mag/cell
     absolute magnetization    =     6.78 Bohr mag/cell

     iteration #  2     ecut=    70.00 Ry     beta= 0.70
     Davidson diagonalization with overlap
     ethr =  6.65E-03,  avg # of iterations =  4.0

     negative rho (up, down):  4.714E-04 5.689E-02

     total cpu time spent up to now is      326.8 secs

     total energy              =    -945.90381100 Ry
     Harris-Foulkes estimate   =    -957.74609042 Ry
     estimated scf accuracy    <      32.97467687 Ry

     total magnetization       =     4.00 Bohr mag/cell
     absolute magnetization    =     4.61 Bohr mag/cell

     iteration #  3     ecut=    70.00 Ry     beta= 0.70
     Davidson diagonalization with overlap
     ethr =  6.65E-03,  avg # of iterations =  5.0

     negative rho (up, down):  9.799E-04 2.619E-01

     total cpu time spent up to now is      429.5 secs

     total energy              =    -951.23524693 Ry
     Harris-Foulkes estimate   =    -952.93351546 Ry
     estimated scf accuracy    <      21.39591877 Ry

     total magnetization       =     4.00 Bohr mag/cell
     absolute magnetization    =     7.54 Bohr mag/cell

     iteration #  4     ecut=    70.00 Ry     beta= 0.70
     Davidson diagonalization with overlap
     ethr =  6.65E-03,  avg # of iterations =  3.0

     negative rho (up, down):  1.062E-01 5.385E-01

     total cpu time spent up to now is      536.7 secs

     total energy              =    -941.10998561 Ry
     Harris-Foulkes estimate   =    -964.81697637 Ry
     estimated scf accuracy    <     696.43408316 Ry

     total magnetization       =    -0.00 Bohr mag/cell
     absolute magnetization    =    38.17 Bohr mag/cell

     iteration #  5     ecut=    70.00 Ry     beta= 0.70
     Davidson diagonalization with overlap
     ethr =  6.65E-03,  avg # of iterations =  3.5

     negative rho (up, down):  7.346E-02 4.376E-01

     total cpu time spent up to now is      651.3 secs

     total energy              =    -950.74064563 Ry
     Harris-Foulkes estimate   =    -952.64315886 Ry
     estimated scf accuracy    <      17.37272580 Ry

     total magnetization       =     1.99 Bohr mag/cell
     absolute magnetization    =     3.32 Bohr mag/cell

     iteration #  6     ecut=    70.00 Ry     beta= 0.70
     Davidson diagonalization with overlap
     ethr =  6.65E-03,  avg # of iterations =  2.0

     negative rho (up, down):  3.576E-02 4.249E-01

     total cpu time spent up to now is      749.1 secs

     total energy              =    -952.59751569 Ry
     Harris-Foulkes estimate   =    -952.96920600 Ry
     estimated scf accuracy    <      92.53653247 Ry

     total magnetization       =     0.10 Bohr mag/cell
     absolute magnetization    =    15.03 Bohr mag/cell

     iteration #  7     ecut=    70.00 Ry     beta= 0.70
     Davidson diagonalization with overlap
     ethr =  6.65E-03,  avg # of iterations =  1.0

     negative rho (up, down):  6.273E-02 4.154E-01

     total cpu time spent up to now is      840.5 secs

     total energy              =    -950.20695749 Ry
     Harris-Foulkes estimate   =    -952.63975178 Ry
     estimated scf accuracy    <      75.16933604 Ry

     total magnetization       =     0.09 Bohr mag/cell
     absolute magnetization    =    13.51 Bohr mag/cell

     iteration #  8     ecut=    70.00 Ry     beta= 0.70
     Davidson diagonalization with overlap
     ethr =  6.65E-03,  avg # of iterations =  2.0

     negative rho (up, down):  1.469E-02 3.209E-01

     total cpu time spent up to now is      937.3 secs

     total energy              =    -951.81199731 Ry
     Harris-Foulkes estimate   =    -951.69487582 Ry
     estimated scf accuracy    <       2.27195423 Ry

     total magnetization       =     0.00 Bohr mag/cell
     absolute magnetization    =     2.24 Bohr mag/cell

     iteration #  9     ecut=    70.00 Ry     beta= 0.70
     Davidson diagonalization with overlap
     ethr =  1.05E-03,  avg # of iterations =  5.0

     negative rho (up, down):  3.307E-02 3.210E-01

     total cpu time spent up to now is     1041.1 secs

     total energy              =    -952.16836805 Ry
     Harris-Foulkes estimate   =    -952.13725166 Ry
     estimated scf accuracy    <      17.84466670 Ry

     total magnetization       =     0.00 Bohr mag/cell
     absolute magnetization    =     6.26 Bohr mag/cell

     iteration # 10     ecut=    70.00 Ry     beta= 0.70
     Davidson diagonalization with overlap
     ethr =  1.05E-03,  avg # of iterations =  1.0

     negative rho (up, down):  3.940E-02 3.553E-01

     total cpu time spent up to now is     1132.6 secs

     total energy              =    -951.43423638 Ry
     Harris-Foulkes estimate   =    -952.17334460 Ry
     estimated scf accuracy    <      21.29100198 Ry

     total magnetization       =    -0.00 Bohr mag/cell
     absolute magnetization    =     6.90 Bohr mag/cell

     iteration # 11     ecut=    70.00 Ry     beta= 0.70
     Davidson diagonalization with overlap
     ethr =  1.05E-03,  avg # of iterations =  2.0

     negative rho (up, down):  1.846E-02 2.411E-01

     total cpu time spent up to now is     1231.4 secs

     total energy              =    -951.83066432 Ry
     Harris-Foulkes estimate   =    -951.83188459 Ry
     estimated scf accuracy    <       0.93037220 Ry

     total magnetization       =    -0.00 Bohr mag/cell
     absolute magnetization    =     0.91 Bohr mag/cell

     iteration # 12     ecut=    70.00 Ry     beta= 0.70
     Davidson diagonalization with overlap
     ethr =  4.31E-04,  avg # of iterations =  2.0

     negative rho (up, down):  2.267E-02 1.086E-01

     total cpu time spent up to now is     1328.8 secs

     total energy              =    -951.79926166 Ry
     Harris-Foulkes estimate   =    -951.92298976 Ry
     estimated scf accuracy    <       2.07326316 Ry

     total magnetization       =    -0.00 Bohr mag/cell
     absolute magnetization    =     1.23 Bohr mag/cell

     iteration # 13     ecut=    70.00 Ry     beta= 0.70
     Davidson diagonalization with overlap
     ethr =  4.31E-04,  avg # of iterations =  2.0

     negative rho (up, down):  6.508E-03 1.745E-01

     total cpu time spent up to now is     1425.0 secs

     total energy              =    -951.87737784 Ry
     Harris-Foulkes estimate   =    -951.89163241 Ry
     estimated scf accuracy    <       0.35872613 Ry

     total magnetization       =    -0.00 Bohr mag/cell
     absolute magnetization    =     0.73 Bohr mag/cell

     iteration # 14     ecut=    70.00 Ry     beta= 0.70
     Davidson diagonalization with overlap
     ethr =  1.66E-04,  avg # of iterations =  5.0

     negative rho (up, down):  1.064E-02 2.540E-01

     total cpu time spent up to now is     1520.8 secs

     total energy              =    -951.86904211 Ry
     Harris-Foulkes estimate   =    -951.90189198 Ry
     estimated scf accuracy    <       1.10478619 Ry

     total magnetization       =     0.00 Bohr mag/cell
     absolute magnetization    =     1.45 Bohr mag/cell

     iteration # 15     ecut=    70.00 Ry     beta= 0.70
     Davidson diagonalization with overlap
     ethr =  1.66E-04,  avg # of iterations =  2.0

     negative rho (up, down):  1.479E-02 2.804E-01

     total cpu time spent up to now is     1617.3 secs

     total energy              =    -951.91166872 Ry
     Harris-Foulkes estimate   =    -951.90828701 Ry
     estimated scf accuracy    <       1.35662322 Ry

     total magnetization       =    -0.00 Bohr mag/cell
     absolute magnetization    =     1.40 Bohr mag/cell

     iteration # 16     ecut=    70.00 Ry     beta= 0.70
     Davidson diagonalization with overlap
     ethr =  1.66E-04,  avg # of iterations =  2.0

     negative rho (up, down):  4.231E-03 3.581E-01

     total cpu time spent up to now is     1714.3 secs

     total energy              =    -951.88863811 Ry
     Harris-Foulkes estimate   =    -951.94635420 Ry
     estimated scf accuracy    <       3.84898839 Ry

     total magnetization       =     0.00 Bohr mag/cell
     absolute magnetization    =     3.01 Bohr mag/cell

     iteration # 17     ecut=    70.00 Ry     beta= 0.70
     Davidson diagonalization with overlap
     ethr =  1.66E-04,  avg # of iterations =  2.0

     negative rho (up, down):  1.468E-03 3.604E-01

     total cpu time spent up to now is     1813.6 secs

     total energy              =    -951.92827614 Ry
     Harris-Foulkes estimate   =    -951.92847263 Ry
     estimated scf accuracy    <       3.20032813 Ry

     total magnetization       =    -0.00 Bohr mag/cell
     absolute magnetization    =     2.78 Bohr mag/cell

     iteration # 18     ecut=    70.00 Ry     beta= 0.70
     Davidson diagonalization with overlap
     ethr =  1.66E-04,  avg # of iterations =  1.5

     negative rho (up, down):  4.165E-03 3.576E-01

     total cpu time spent up to now is     1906.2 secs

     total energy              =    -951.85486760 Ry
     Harris-Foulkes estimate   =    -951.93642106 Ry
     estimated scf accuracy    <       2.69186362 Ry

     total magnetization       =     0.00 Bohr mag/cell
     absolute magnetization    =     2.47 Bohr mag/cell

     iteration # 19     ecut=    70.00 Ry     beta= 0.70
     Davidson diagonalization with overlap
     ethr =  1.66E-04,  avg # of iterations =  2.0

     negative rho (up, down):  6.812E-03 2.901E-01

     total cpu time spent up to now is     2001.8 secs

     total energy              =    -951.90668632 Ry
     Harris-Foulkes estimate   =    -951.88596331 Ry
     estimated scf accuracy    <       0.76494128 Ry

     total magnetization       =     0.00 Bohr mag/cell
     absolute magnetization    =     1.21 Bohr mag/cell

     iteration # 20     ecut=    70.00 Ry     beta= 0.70
     Davidson diagonalization with overlap
     ethr =  1.66E-04,  avg # of iterations =  2.0

     negative rho (up, down):  5.231E-03 3.407E-01

     total cpu time spent up to now is     2098.9 secs

     total energy              =    -951.78715638 Ry
     Harris-Foulkes estimate   =    -951.94350860 Ry
     estimated scf accuracy    <       3.93044009 Ry

     total magnetization       =    -0.00 Bohr mag/cell
     absolute magnetization    =     3.04 Bohr mag/cell

     iteration # 21     ecut=    70.00 Ry     beta= 0.70
     Davidson diagonalization with overlap
     ethr =  1.66E-04,  avg # of iterations =  5.5

     negative rho (up, down):  1.036E-02 2.051E-01

     total cpu time spent up to now is     2203.5 secs

     total energy              =    -951.84945015 Ry
     Harris-Foulkes estimate   =    -951.89809164 Ry
     estimated scf accuracy    <       0.58554916 Ry

     total magnetization       =     0.00 Bohr mag/cell
     absolute magnetization    =     0.66 Bohr mag/cell

     iteration # 22     ecut=    70.00 Ry     beta= 0.70
     Davidson diagonalization with overlap
     ethr =  1.66E-04,  avg # of iterations =  2.0

     negative rho (up, down):  2.619E-03 1.972E-01

     total cpu time spent up to now is     2299.5 secs

     total energy              =    -951.88333559 Ry
     Harris-Foulkes estimate   =    -951.88213636 Ry
     estimated scf accuracy    <       0.04893736 Ry

     total magnetization       =    -0.00 Bohr mag/cell
     absolute magnetization    =     0.26 Bohr mag/cell

     iteration # 23     ecut=    70.00 Ry     beta= 0.70
     Davidson diagonalization with overlap
     ethr =  2.27E-05,  avg # of iterations =  4.0

     negative rho (up, down):  5.881E-03 1.557E-01

     total cpu time spent up to now is     2408.5 secs

     total energy              =    -951.87341307 Ry
     Harris-Foulkes estimate   =    -951.89335420 Ry
     estimated scf accuracy    <       0.23209351 Ry

     total magnetization       =     0.00 Bohr mag/cell
     absolute magnetization    =     0.47 Bohr mag/cell

     iteration # 24     ecut=    70.00 Ry     beta= 0.70
     Davidson diagonalization with overlap
     ethr =  2.27E-05,  avg # of iterations =  2.5

     negative rho (up, down):  1.184E-03 6.739E-02

     total cpu time spent up to now is     2511.9 secs

     total energy              =    -951.88410603 Ry
     Harris-Foulkes estimate   =    -951.88557140 Ry
     estimated scf accuracy    <       0.02975240 Ry

     total magnetization       =    -0.00 Bohr mag/cell
     absolute magnetization    =     0.18 Bohr mag/cell

     iteration # 25     ecut=    70.00 Ry     beta= 0.70
     Davidson diagonalization with overlap
     ethr =  1.38E-05,  avg # of iterations =  7.5

     negative rho (up, down):  5.254E-03 2.266E-02

     total cpu time spent up to now is     2613.7 secs

     total energy              =    -951.88291942 Ry
     Harris-Foulkes estimate   =    -951.88783656 Ry
     estimated scf accuracy    <       0.07974305 Ry

     total magnetization       =     0.00 Bohr mag/cell
     absolute magnetization    =     0.12 Bohr mag/cell

     iteration # 26     ecut=    70.00 Ry     beta= 0.70
     Davidson diagonalization with overlap
     ethr =  1.38E-05,  avg # of iterations =  3.0

     negative rho (up, down):  1.423E-03 7.825E-02

     total cpu time spent up to now is     2712.4 secs

     total energy              =    -951.88585442 Ry
     Harris-Foulkes estimate   =    -951.88483439 Ry
     estimated scf accuracy    <       0.00538430 Ry

     total magnetization       =     0.00 Bohr mag/cell
     absolute magnetization    =     0.12 Bohr mag/cell

     iteration # 27     ecut=    70.00 Ry     beta= 0.70
     Davidson diagonalization with overlap
     ethr =  2.49E-06,  avg # of iterations =  3.5

     negative rho (up, down):  9.983E-04 1.505E-01

     total cpu time spent up to now is     2812.0 secs

     total energy              =    -951.88660615 Ry
     Harris-Foulkes estimate   =    -951.88634601 Ry
     estimated scf accuracy    <       0.02089056 Ry

     total magnetization       =     0.00 Bohr mag/cell
     absolute magnetization    =     0.23 Bohr mag/cell

     iteration # 28     ecut=    70.00 Ry     beta= 0.70
     Davidson diagonalization with overlap
     ethr =  2.49E-06,  avg # of iterations =  3.5

     negative rho (up, down):  1.200E-03 2.056E-01

     total cpu time spent up to now is     2911.2 secs

     total energy              =    -951.88627536 Ry
     Harris-Foulkes estimate   =    -951.88695610 Ry
     estimated scf accuracy    <       0.07197342 Ry

     total magnetization       =    -0.00 Bohr mag/cell
     absolute magnetization    =     0.41 Bohr mag/cell

     iteration # 29     ecut=    70.00 Ry     beta= 0.70
     Davidson diagonalization with overlap
     ethr =  2.49E-06,  avg # of iterations =  4.0

     negative rho (up, down):  2.844E-03 2.012E-01

     total cpu time spent up to now is     3013.4 secs

     total energy              =    -951.88706788 Ry
     Harris-Foulkes estimate   =    -951.88707225 Ry
     estimated scf accuracy    <       0.12266259 Ry

     total magnetization       =     0.00 Bohr mag/cell
     absolute magnetization    =     0.49 Bohr mag/cell

     iteration # 30     ecut=    70.00 Ry     beta= 0.70
     Davidson diagonalization with overlap
     ethr =  2.49E-06,  avg # of iterations =  3.0

     negative rho (up, down):  3.043E-03 2.525E-01

     total cpu time spent up to now is     3122.4 secs

     total energy              =    -951.87941618 Ry
     Harris-Foulkes estimate   =    -951.89026009 Ry
     estimated scf accuracy    <       0.37712099 Ry

     total magnetization       =    -0.00 Bohr mag/cell
     absolute magnetization    =     0.92 Bohr mag/cell

     iteration # 31     ecut=    70.00 Ry     beta= 0.70
     Davidson diagonalization with overlap
     ethr =  2.49E-06,  avg # of iterations =  4.0

     negative rho (up, down):  2.672E-03 2.249E-01

     total cpu time spent up to now is     3235.9 secs

     total energy              =    -951.88530732 Ry
     Harris-Foulkes estimate   =    -951.88497029 Ry
     estimated scf accuracy    <       0.12302271 Ry

     total magnetization       =     0.00 Bohr mag/cell
     absolute magnetization    =     0.52 Bohr mag/cell

     iteration # 32     ecut=    70.00 Ry     beta= 0.70
     Davidson diagonalization with overlap
     ethr =  2.49E-06,  avg # of iterations =  3.0

     negative rho (up, down):  2.126E-03 2.149E-01

     total cpu time spent up to now is     3334.2 secs

     total energy              =    -951.88542229 Ry
     Harris-Foulkes estimate   =    -951.88558787 Ry
     estimated scf accuracy    <       0.07438363 Ry

     total magnetization       =    -0.00 Bohr mag/cell
     absolute magnetization    =     0.41 Bohr mag/cell

     iteration # 33     ecut=    70.00 Ry     beta= 0.70
     Davidson diagonalization with overlap
     ethr =  2.49E-06,  avg # of iterations =  2.0

     negative rho (up, down):  2.882E-03 1.892E-01

     total cpu time spent up to now is     3430.6 secs

     total energy              =    -951.88413755 Ry
     Harris-Foulkes estimate   =    -951.88590554 Ry
     estimated scf accuracy    <       0.07228046 Ry

     total magnetization       =    -0.00 Bohr mag/cell
     absolute magnetization    =     0.35 Bohr mag/cell

     iteration # 34     ecut=    70.00 Ry     beta= 0.70
     Davidson diagonalization with overlap
     ethr =  2.49E-06,  avg # of iterations =  3.0

     negative rho (up, down):  1.470E-03 1.647E-01

     total cpu time spent up to now is     3532.1 secs

     total energy              =    -951.88499210 Ry
     Harris-Foulkes estimate   =    -951.88504791 Ry
     estimated scf accuracy    <       0.01648531 Ry

     total magnetization       =     0.00 Bohr mag/cell
     absolute magnetization    =     0.17 Bohr mag/cell

     iteration # 35     ecut=    70.00 Ry     beta= 0.70
     Davidson diagonalization with overlap
     ethr =  2.49E-06,  avg # of iterations =  4.0

     negative rho (up, down):  1.099E-03 8.914E-02

     total cpu time spent up to now is     3631.6 secs

     total energy              =    -951.88587253 Ry
     Harris-Foulkes estimate   =    -951.88545073 Ry
     estimated scf accuracy    <       0.00154678 Ry

     total magnetization       =    -0.00 Bohr mag/cell
     absolute magnetization    =     0.03 Bohr mag/cell

     iteration # 36     ecut=    70.00 Ry     beta= 0.70
     Davidson diagonalization with overlap
     ethr =  7.16E-07,  avg # of iterations =  3.5

     negative rho (up, down):  1.410E-03 1.634E-02

     total cpu time spent up to now is     3737.2 secs

     total energy              =    -951.88571375 Ry
     Harris-Foulkes estimate   =    -951.88631938 Ry
     estimated scf accuracy    <       0.00688464 Ry

     total magnetization       =     0.00 Bohr mag/cell
     absolute magnetization    =     0.04 Bohr mag/cell

     iteration # 37     ecut=    70.00 Ry     beta= 0.70
     Davidson diagonalization with overlap
     ethr =  7.16E-07,  avg # of iterations =  3.0

     negative rho (up, down):  1.059E-03 4.529E-02

     total cpu time spent up to now is     3841.2 secs

     total energy              =    -951.88608486 Ry
     Harris-Foulkes estimate   =    -951.88609755 Ry
     estimated scf accuracy    <       0.00230475 Ry

     total magnetization       =     0.00 Bohr mag/cell
     absolute magnetization    =     0.07 Bohr mag/cell

     iteration # 38     ecut=    70.00 Ry     beta= 0.70
     Davidson diagonalization with overlap
     ethr =  7.16E-07,  avg # of iterations =  2.5

     negative rho (up, down):  1.009E-03 3.617E-02

     total cpu time spent up to now is     3935.8 secs

     total energy              =    -951.88618414 Ry
     Harris-Foulkes estimate   =    -951.88614254 Ry
     estimated scf accuracy    <       0.00045260 Ry

     total magnetization       =    -0.00 Bohr mag/cell
     absolute magnetization    =     0.03 Bohr mag/cell

     iteration # 39     ecut=    70.00 Ry     beta= 0.70
     Davidson diagonalization with overlap
     ethr =  2.10E-07,  avg # of iterations =  1.0

     negative rho (up, down):  1.009E-03 3.731E-02

     total cpu time spent up to now is     4027.2 secs

     total energy              =    -951.88617061 Ry
     Harris-Foulkes estimate   =    -951.88618607 Ry
     estimated scf accuracy    <       0.00048611 Ry

     total magnetization       =    -0.00 Bohr mag/cell
     absolute magnetization    =     0.04 Bohr mag/cell

     iteration # 40     ecut=    70.00 Ry     beta= 0.70
     Davidson diagonalization with overlap
     ethr =  2.10E-07,  avg # of iterations =  2.0

     negative rho (up, down):  1.015E-03 1.301E-01

     total cpu time spent up to now is     4131.1 secs

     total energy              =    -951.88552256 Ry
     Harris-Foulkes estimate   =    -951.88645389 Ry
     estimated scf accuracy    <       0.01727280 Ry

     total magnetization       =     0.00 Bohr mag/cell
     absolute magnetization    =     0.20 Bohr mag/cell

     iteration # 41     ecut=    70.00 Ry     beta= 0.70
     Davidson diagonalization with overlap
     ethr =  2.10E-07,  avg # of iterations =  3.0

     negative rho (up, down):  1.010E-03 5.066E-02

     total cpu time spent up to now is     4237.7 secs

     total energy              =    -951.88617524 Ry
     Harris-Foulkes estimate   =    -951.88581038 Ry
     estimated scf accuracy    <       0.00024499 Ry

     total magnetization       =    -0.00 Bohr mag/cell
     absolute magnetization    =     0.03 Bohr mag/cell

     iteration # 42     ecut=    70.00 Ry     beta= 0.70
     Davidson diagonalization with overlap
     ethr =  1.13E-07,  avg # of iterations =  3.0

     negative rho (up, down):  1.074E-03 1.006E-01

     total cpu time spent up to now is     4340.9 secs

     total energy              =    -951.88595536 Ry
     Harris-Foulkes estimate   =    -951.88626789 Ry
     estimated scf accuracy    <       0.00712078 Ry

     total magnetization       =    -0.00 Bohr mag/cell
     absolute magnetization    =     0.12 Bohr mag/cell

     iteration # 43     ecut=    70.00 Ry     beta= 0.70
     Davidson diagonalization with overlap
     ethr =  1.13E-07,  avg # of iterations =  2.5

     negative rho (up, down):  1.056E-03 7.670E-02

     total cpu time spent up to now is     4439.6 secs

     total energy              =    -951.88603327 Ry
     Harris-Foulkes estimate   =    -951.88599145 Ry
     estimated scf accuracy    <       0.00151177 Ry

     total magnetization       =     0.00 Bohr mag/cell
     absolute magnetization    =     0.05 Bohr mag/cell

     iteration # 44     ecut=    70.00 Ry     beta= 0.70
     Davidson diagonalization with overlap
     ethr =  1.13E-07,  avg # of iterations =  2.5

     negative rho (up, down):  1.112E-03 3.057E-02

     total cpu time spent up to now is     4540.4 secs

     total energy              =    -951.88609900 Ry
     Harris-Foulkes estimate   =    -951.88610380 Ry
     estimated scf accuracy    <       0.00155130 Ry

     total magnetization       =     0.00 Bohr mag/cell
     absolute magnetization    =     0.02 Bohr mag/cell

     iteration # 45     ecut=    70.00 Ry     beta= 0.70
     Davidson diagonalization with overlap
     ethr =  1.13E-07,  avg # of iterations =  2.5

     negative rho (up, down):  1.024E-03 2.155E-02

     total cpu time spent up to now is     4641.6 secs

     total energy              =    -951.88618063 Ry
     Harris-Foulkes estimate   =    -951.88614852 Ry
     estimated scf accuracy    <       0.00047172 Ry

     total magnetization       =    -0.00 Bohr mag/cell
     absolute magnetization    =     0.03 Bohr mag/cell

     iteration # 46     ecut=    70.00 Ry     beta= 0.70
     Davidson diagonalization with overlap
     ethr =  1.13E-07,  avg # of iterations =  1.5

     negative rho (up, down):  1.013E-03 1.292E-02

     total cpu time spent up to now is     4734.9 secs

     total energy              =    -951.88619633 Ry
     Harris-Foulkes estimate   =    -951.88618890 Ry
     estimated scf accuracy    <       0.00005614 Ry

     total magnetization       =    -0.00 Bohr mag/cell
     absolute magnetization    =     0.01 Bohr mag/cell

     iteration # 47     ecut=    70.00 Ry     beta= 0.70
     Davidson diagonalization with overlap
     ethr =  2.60E-08,  avg # of iterations =  2.0

     negative rho (up, down):  1.011E-03 7.336E-03

     total cpu time spent up to now is     4827.0 secs

     total energy              =    -951.88620006 Ry
     Harris-Foulkes estimate   =    -951.88619791 Ry
     estimated scf accuracy    <       0.00000912 Ry

     total magnetization       =    -0.00 Bohr mag/cell
     absolute magnetization    =     0.01 Bohr mag/cell

     iteration # 48     ecut=    70.00 Ry     beta= 0.70
     Davidson diagonalization with overlap
     ethr =  4.22E-09,  avg # of iterations =  2.0

     negative rho (up, down):  1.010E-03 1.527E-03

     total cpu time spent up to now is     4924.6 secs

     total energy              =    -951.88620093 Ry
     Harris-Foulkes estimate   =    -951.88620152 Ry
     estimated scf accuracy    <       0.00001250 Ry

     total magnetization       =     0.00 Bohr mag/cell
     absolute magnetization    =     0.00 Bohr mag/cell

     iteration # 49     ecut=    70.00 Ry     beta= 0.70
     Davidson diagonalization with overlap
     ethr =  4.22E-09,  avg # of iterations =  2.5

     negative rho (up, down):  1.013E-03 7.279E-03

     total cpu time spent up to now is     5024.7 secs

     total energy              =    -951.88619957 Ry
     Harris-Foulkes estimate   =    -951.88620353 Ry
     estimated scf accuracy    <       0.00007161 Ry

     total magnetization       =    -0.00 Bohr mag/cell
     absolute magnetization    =     0.01 Bohr mag/cell

     iteration # 50     ecut=    70.00 Ry     beta= 0.70
     Davidson diagonalization with overlap
     ethr =  4.22E-09,  avg # of iterations =  2.5

     negative rho (up, down):  1.011E-03 2.023E-02

     total cpu time spent up to now is     5126.7 secs

     total energy              =    -951.88619192 Ry
     Harris-Foulkes estimate   =    -951.88620333 Ry
     estimated scf accuracy    <       0.00022132 Ry

     total magnetization       =     0.00 Bohr mag/cell
     absolute magnetization    =     0.02 Bohr mag/cell

     iteration # 51     ecut=    70.00 Ry     beta= 0.70
     Davidson diagonalization with overlap
     ethr =  4.22E-09,  avg # of iterations =  2.5

     negative rho (up, down):  1.011E-03 1.713E-02

     total cpu time spent up to now is     5229.5 secs

     total energy              =    -951.88619389 Ry
     Harris-Foulkes estimate   =    -951.88619661 Ry
     estimated scf accuracy    <       0.00013558 Ry

     total magnetization       =     0.00 Bohr mag/cell
     absolute magnetization    =     0.02 Bohr mag/cell

     iteration # 52     ecut=    70.00 Ry     beta= 0.70
     Davidson diagonalization with overlap
     ethr =  4.22E-09,  avg # of iterations =  2.5

     negative rho (up, down):  1.010E-03 8.281E-03

     total cpu time spent up to now is     5329.5 secs

     total energy              =    -951.88620129 Ry
     Harris-Foulkes estimate   =    -951.88619654 Ry
     estimated scf accuracy    <       0.00002291 Ry

     total magnetization       =     0.00 Bohr mag/cell
     absolute magnetization    =     0.01 Bohr mag/cell

     iteration # 53     ecut=    70.00 Ry     beta= 0.70
     Davidson diagonalization with overlap
     ethr =  4.22E-09,  avg # of iterations =  1.0

     negative rho (up, down):  1.011E-03 9.836E-03

     total cpu time spent up to now is     5421.0 secs

     total energy              =    -951.88619964 Ry
     Harris-Foulkes estimate   =    -951.88620134 Ry
     estimated scf accuracy    <       0.00003431 Ry

     total magnetization       =     0.00 Bohr mag/cell
     absolute magnetization    =     0.01 Bohr mag/cell

     iteration # 54     ecut=    70.00 Ry     beta= 0.70
     Davidson diagonalization with overlap
     ethr =  4.22E-09,  avg # of iterations =  2.0

     negative rho (up, down):  1.011E-03 3.555E-03

     total cpu time spent up to now is     5516.2 secs

     total energy              =    -951.88620156 Ry
     Harris-Foulkes estimate   =    -951.88620025 Ry
     estimated scf accuracy    <       0.00000337 Ry

     total magnetization       =    -0.00 Bohr mag/cell
     absolute magnetization    =     0.00 Bohr mag/cell

     iteration # 55     ecut=    70.00 Ry     beta= 0.70
     Davidson diagonalization with overlap
     ethr =  1.56E-09,  avg # of iterations =  2.0

     negative rho (up, down):  1.010E-03 1.663E-03

     total cpu time spent up to now is     5609.0 secs

     total energy              =    -951.88620191 Ry
     Harris-Foulkes estimate   =    -951.88620165 Ry
     estimated scf accuracy    <       0.00000119 Ry

     total magnetization       =     0.00 Bohr mag/cell
     absolute magnetization    =     0.00 Bohr mag/cell

     iteration # 56     ecut=    70.00 Ry     beta= 0.70
     Davidson diagonalization with overlap
     ethr =  5.49E-10,  avg # of iterations =  1.5

     negative rho (up, down):  1.009E-03 1.029E-05

     Magnetic moment per site:
     atom:    1    charge:    0.2113    magn:   -0.0000    constr:    0.0000
     atom:    2    charge:    0.2113    magn:   -0.0000    constr:    0.0000
     atom:    3    charge:    1.7155    magn:    0.0000    constr:    0.0000
     atom:    4    charge:    1.7152    magn:    0.0000    constr:    0.0000
     atom:    5    charge:    1.7168    magn:   -0.0000    constr:    0.0000
     atom:    6    charge:    1.7146    magn:    0.0000    constr:    0.0000
     atom:    7    charge:    1.7168    magn:   -0.0000    constr:    0.0000
     atom:    8    charge:    1.7152    magn:    0.0000    constr:    0.0000
     atom:    9    charge:    1.7155    magn:   -0.0000    constr:    0.0000
     atom:   10    charge:    1.7177    magn:   -0.0000    constr:    0.0000
     atom:   11    charge:    1.7156    magn:    0.0000    constr:    0.0000
     atom:   12    charge:    1.7177    magn:   -0.0000    constr:    0.0000
     atom:   13    charge:    1.7156    magn:    0.0000    constr:    0.0000
     atom:   14    charge:    1.7176    magn:   -0.0000    constr:    0.0000
     atom:   15    charge:    1.7118    magn:    0.0000    constr:    0.0000
     atom:   16    charge:    1.7114    magn:   -0.0000    constr:    0.0000
     atom:   17    charge:    1.7206    magn:   -0.0000    constr:    0.0000
     atom:   18    charge:    1.7114    magn:    0.0000    constr:    0.0000
     atom:   19    charge:    1.7118    magn:   -0.0000    constr:    0.0000
     atom:   20    charge:    1.7176    magn:    0.0000    constr:    0.0000
     atom:   21    charge:    1.7156    magn:    0.0000    constr:    0.0000
     atom:   22    charge:    1.7177    magn:   -0.0000    constr:    0.0000
     atom:   23    charge:    1.7155    magn:    0.0000    constr:    0.0000
     atom:   24    charge:    1.7152    magn:    0.0000    constr:    0.0000
     atom:   25    charge:    1.7118    magn:    0.0000    constr:    0.0000
     atom:   26    charge:    1.7114    magn:   -0.0000    constr:    0.0000
     atom:   27    charge:    1.8182    magn:   -0.0000    constr:    0.0000
     atom:   28    charge:   13.4051    magn:    0.0001    constr:    0.0000
     atom:   29    charge:    1.8182    magn:   -0.0000    constr:    0.0000
     atom:   30    charge:    1.7114    magn:    0.0000    constr:    0.0000
     atom:   31    charge:    1.7118    magn:   -0.0000    constr:    0.0000
     atom:   32    charge:    1.7152    magn:    0.0000    constr:    0.0000
     atom:   33    charge:    1.7168    magn:   -0.0000    constr:    0.0000
     atom:   34    charge:    1.7154    magn:    0.0000    constr:    0.0000
     atom:   35    charge:    1.7168    magn:   -0.0000    constr:    0.0000
     atom:   36    charge:    1.7146    magn:    0.0000    constr:    0.0000
     atom:   37    charge:    1.7206    magn:   -0.0000    constr:    0.0000
     atom:   38    charge:    1.7114    magn:    0.0000    constr:    0.0000
     atom:   39    charge:    1.8182    magn:   -0.0000    constr:    0.0000
     atom:   40    charge:    1.7114    magn:    0.0000    constr:    0.0000
     atom:   41    charge:    1.7206    magn:   -0.0000    constr:    0.0000
     atom:   42    charge:    1.7146    magn:    0.0000    constr:    0.0000
     atom:   43    charge:    1.7168    magn:   -0.0000    constr:    0.0000
     atom:   44    charge:    1.7154    magn:    0.0000    constr:    0.0000
     atom:   45    charge:    1.7212    magn:   -0.0000    constr:    0.0000
     atom:   46    charge:    1.7154    magn:    0.0000    constr:    0.0000
     atom:   47    charge:    1.7168    magn:   -0.0000    constr:    0.0000
     atom:   48    charge:    1.7152    magn:    0.0000    constr:    0.0000
     atom:   49    charge:    1.7118    magn:   -0.0000    constr:    0.0000
     atom:   50    charge:    1.7176    magn:    0.0000    constr:    0.0000
     atom:   51    charge:    1.7118    magn:   -0.0000    constr:    0.0000
     atom:   52    charge:    1.7152    magn:    0.0000    constr:    0.0000

     total cpu time spent up to now is     5701.3 secs

     End of self-consistent calculation

 ------ SPIN UP ------------


          k = 0.0000 0.0000 0.0000 ( 87777 PWs)   bands (ev):

  -107.9036 -69.0724 -69.0724 -66.9868 -19.8168 -18.9972 -18.9965 -18.8796
   -18.8793 -18.7948 -18.7251 -17.1532 -17.1531 -17.1190 -17.0694 -17.0692
   -16.7440 -16.3025 -16.3024 -16.1563 -16.1562 -16.1429 -15.6597 -14.3001
   -14.3000 -14.1400 -14.0074 -14.0072 -13.5044 -13.1190 -13.1190 -13.0675
   -12.8910 -12.8909 -12.4908 -12.0654 -12.0652 -11.7026 -11.5583 -11.5583
   -10.9240 -10.4207 -10.4205  -9.5665  -9.3558  -9.3557  -9.2175  -9.2023
    -9.2023  -9.1877  -8.9427  -8.9426  -8.5829  -8.5827  -8.4464  -7.9329
    -7.8919  -7.8310  -7.8303  -7.6536  -7.5317  -7.5317  -7.4385  -7.4385
    -6.8360  -6.8134  -6.8129  -6.7440  -6.6836  -6.6092  -6.6092  -6.5462
    -6.5414  -6.5411  -6.5075  -6.4978  -6.4152  -6.4142  -6.3665  -6.2788
    -6.2787  -5.5372  -5.5371  -5.0208  -4.9403  -4.8328  -4.8326  -4.7489
    -4.7071  -4.7069  -4.4187  -4.3895  -4.3895  -3.8270  -3.8269  -3.7557
    -3.7495  -3.7494  -3.7112  -3.4092  -3.4088  -3.3401  -1.8820  -1.7977
    -1.7975  -1.5794  -1.5793  -1.1457   0.1216   0.1221   0.9140   0.9718
     0.9720   1.2227   1.2228   1.5607   2.4932   2.8123   2.8125   2.8622
     3.0508   3.0508   3.4376   3.4691   3.6109   3.7338   3.7376   3.7628
     3.9599   4.0452

     occupation numbers 
     1.0000   1.0000   1.0000   1.0000   1.0000   1.0000   1.0000   1.0000
     1.0000   1.0000   1.0000   1.0000   1.0000   1.0000   1.0000   1.0000
     1.0000   1.0000   1.0000   1.0000   1.0000   1.0000   1.0000   1.0000
     1.0000   1.0000   1.0000   1.0000   1.0000   1.0000   1.0000   1.0000
     1.0000   1.0000   1.0000   1.0000   1.0000   1.0000   1.0000   1.0000
     1.0000   1.0000   1.0000   1.0000   1.0000   1.0000   1.0000   1.0000
     1.0000   1.0000   1.0000   1.0000   1.0000   1.0000   1.0000   1.0000
     1.0000   1.0000   1.0000   1.0000   1.0000   1.0000   1.0000   1.0000
     1.0000   1.0000   1.0000   1.0000   1.0000   1.0000   1.0000   1.0000
     1.0000   1.0000   1.0000   1.0000   1.0000   1.0000   1.0000   1.0000
     1.0000   1.0000   1.0000   1.0000   1.0000   1.0000   1.0000   1.0000
     1.0000   1.0000   1.0000   1.0000   1.0000   1.0000   1.0000   1.0000
     1.0000   1.0000   1.0000   1.0000   1.0000   1.0000   1.0000   1.0000
     1.0000   1.0000   1.0000   1.0000   0.0000   0.0000   0.0000   0.0000
     0.0000   0.0000   0.0000   0.0000   0.0000   0.0000   0.0000   0.0000
     0.0000   0.0000   0.0000   0.0000   0.0000   0.0000   0.0000   0.0000
     0.0000   0.0000

 ------ SPIN DOWN ----------


          k = 0.0000 0.0000 0.0000 ( 87777 PWs)   bands (ev):

  -107.9034 -69.0722 -69.0722 -66.9866 -19.8168 -18.9972 -18.9965 -18.8796
   -18.8793 -18.7948 -18.7251 -17.1532 -17.1531 -17.1190 -17.0694 -17.0692
   -16.7440 -16.3025 -16.3024 -16.1563 -16.1562 -16.1429 -15.6597 -14.3001
   -14.3000 -14.1400 -14.0073 -14.0072 -13.5044 -13.1190 -13.1190 -13.0675
   -12.8910 -12.8909 -12.4908 -12.0654 -12.0652 -11.7026 -11.5583 -11.5583
   -10.9241 -10.4207 -10.4205  -9.5665  -9.3558  -9.3557  -9.2175  -9.2023
    -9.2023  -9.1877  -8.9427  -8.9426  -8.5829  -8.5827  -8.4464  -7.9329
    -7.8919  -7.8309  -7.8303  -7.6536  -7.5317  -7.5317  -7.4385  -7.4385
    -6.8360  -6.8135  -6.8129  -6.7440  -6.6837  -6.6092  -6.6092  -6.5462
    -6.5414  -6.5411  -6.5075  -6.4978  -6.4151  -6.4142  -6.3665  -6.2788
    -6.2787  -5.5372  -5.5371  -5.0208  -4.9403  -4.8328  -4.8326  -4.7489
    -4.7071  -4.7069  -4.4187  -4.3895  -4.3895  -3.8270  -3.8269  -3.7557
    -3.7495  -3.7494  -3.7112  -3.4091  -3.4087  -3.3401  -1.8820  -1.7977
    -1.7975  -1.5794  -1.5793  -1.1457   0.1216   0.1221   0.9140   0.9718
     0.9721   1.2227   1.2228   1.5607   2.4932   2.8123   2.8125   2.8622
     3.0507   3.0508   3.4375   3.4691   3.6109   3.7338   3.7376   3.7626
     3.9599   4.0452

     occupation numbers 
     1.0000   1.0000   1.0000   1.0000   1.0000   1.0000   1.0000   1.0000
     1.0000   1.0000   1.0000   1.0000   1.0000   1.0000   1.0000   1.0000
     1.0000   1.0000   1.0000   1.0000   1.0000   1.0000   1.0000   1.0000
     1.0000   1.0000   1.0000   1.0000   1.0000   1.0000   1.0000   1.0000
     1.0000   1.0000   1.0000   1.0000   1.0000   1.0000   1.0000   1.0000
     1.0000   1.0000   1.0000   1.0000   1.0000   1.0000   1.0000   1.0000
     1.0000   1.0000   1.0000   1.0000   1.0000   1.0000   1.0000   1.0000
     1.0000   1.0000   1.0000   1.0000   1.0000   1.0000   1.0000   1.0000
     1.0000   1.0000   1.0000   1.0000   1.0000   1.0000   1.0000   1.0000
     1.0000   1.0000   1.0000   1.0000   1.0000   1.0000   1.0000   1.0000
     1.0000   1.0000   1.0000   1.0000   1.0000   1.0000   1.0000   1.0000
     1.0000   1.0000   1.0000   1.0000   1.0000   1.0000   1.0000   1.0000
     1.0000   1.0000   1.0000   1.0000   1.0000   1.0000   1.0000   1.0000
     1.0000   1.0000   1.0000   1.0000   0.0000   0.0000   0.0000   0.0000
     0.0000   0.0000   0.0000   0.0000   0.0000   0.0000   0.0000   0.0000
     0.0000   0.0000   0.0000   0.0000   0.0000   0.0000   0.0000   0.0000
     0.0000   0.0000

     the Fermi energy is    -0.3027 ev

!    total energy              =    -951.88620197 Ry
     Harris-Foulkes estimate   =    -951.88620195 Ry
     estimated scf accuracy    <       0.00000010 Ry

     The total energy is the sum of the following terms:

     one-electron contribution =   -2961.47157369 Ry
     hartree contribution      =    1523.45790118 Ry
     xc contribution           =    -265.71480715 Ry
     ewald contribution        =     751.84227769 Ry
     smearing contrib. (-TS)   =       0.00000000 Ry

     total magnetization       =    -0.00 Bohr mag/cell
     absolute magnetization    =     0.00 Bohr mag/cell

     convergence has been achieved in  56 iterations

     Writing output data file niquel-top-distance-4.5.save/

     init_run     :     74.87s CPU     76.10s WALL (       1 calls)
     electrons    :   5530.99s CPU   5624.25s WALL (       1 calls)

     Called by init_run:
     wfcinit      :     41.66s CPU     41.90s WALL (       1 calls)
     wfcinit:atom :      0.06s CPU      0.09s WALL (       2 calls)
     wfcinit:wfcr :     41.25s CPU     41.40s WALL (       2 calls)
     potinit      :     13.90s CPU     14.30s WALL (       1 calls)
     hinit0       :     10.99s CPU     11.01s WALL (       1 calls)

     Called by electrons:
     c_bands      :   3558.26s CPU   3576.75s WALL (      56 calls)
     sum_band     :   1143.52s CPU   1173.79s WALL (      56 calls)
     v_of_rho     :    407.43s CPU    424.67s WALL (      57 calls)
     v_h          :      4.23s CPU      4.36s WALL (      57 calls)
     v_xc         :    403.20s CPU    420.31s WALL (      57 calls)
     newd         :    396.75s CPU    424.14s WALL (      57 calls)
     mix_rho      :     26.22s CPU     26.64s WALL (      56 calls)

     Called by c_bands:
     init_us_2    :     10.29s CPU     10.34s WALL (     226 calls)
     cegterg      :   3530.87s CPU   3549.24s WALL (     112 calls)

     Called by sum_band:
     sum_band:bec :      0.09s CPU      0.09s WALL (     112 calls)
     addusdens    :    690.81s CPU    718.61s WALL (      56 calls)

     Called by *egterg:
     h_psi        :   1853.78s CPU   1866.50s WALL (     425 calls)
     s_psi        :    623.29s CPU    623.60s WALL (     425 calls)
     g_psi        :      2.01s CPU      2.02s WALL (     311 calls)
     cdiaghg      :     27.89s CPU     27.90s WALL (     423 calls)
     cegterg:over :    420.65s CPU    420.80s WALL (     311 calls)
     cegterg:upda :    259.38s CPU    260.96s WALL (     311 calls)
     cegterg:last :    188.54s CPU    188.60s WALL (     112 calls)

     Called by h_psi:
     h_psi:pot    :   1851.60s CPU   1862.23s WALL (     425 calls)
     h_psi:calbec :    627.59s CPU    627.83s WALL (     425 calls)
     vloc_psi     :    600.82s CPU    611.05s WALL (     425 calls)
     add_vuspsi   :    623.19s CPU    623.35s WALL (     425 calls)

     General routines
     calbec       :    902.35s CPU    902.70s WALL (     537 calls)
     fft          :    238.77s CPU    245.87s WALL (    4269 calls)
     ffts         :      4.10s CPU      4.22s WALL (     226 calls)
     fftw         :    640.24s CPU    651.41s WALL (   81214 calls)
     interpolate  :      9.60s CPU      9.86s WALL (     114 calls)

     Parallel routines
     fft_scatt_xy :    158.95s CPU    161.06s WALL (   85709 calls)
     fft_scatt_yz :    298.21s CPU    311.62s WALL (   85709 calls)

     PWSCF        :      1h33m CPU      1h35m WALL


   This run was terminated on:  11:28:47  30Dec2022            

=------------------------------------------------------------------------------=
   JOB DONE.
=------------------------------------------------------------------------------=
