
     Program PWSCF v.6.4.1 starts on 31Aug2022 at  0:30:12 

     This program is part of the open-source Quantum ESPRESSO suite
     for quantum simulation of materials; please cite
         "P. Giannozzi et al., J. Phys.:Condens. Matter 21 395502 (2009);
         "P. Giannozzi et al., J. Phys.:Condens. Matter 29 465901 (2017);
          URL http://www.quantum-espresso.org", 
     in publications or presentations arising from this work. More details at
     http://www.quantum-espresso.org/quote

     Parallel version (MPI), running on     6 processors

     MPI processes distributed on     1 nodes
     R & G space division:  proc/nbgrp/npool/nimage =       6
     Reading input from distance-3.5.in

     Current dimensions of program PWSCF are:
     Max number of different atomic species (ntypx) = 10
     Max number of k-points (npk) =  40000
     Max angular momentum in pseudopotentials (lmaxx) =  3

     IMPORTANT: XC functional enforced from input :
     Exchange-correlation      = RVV10 ( 1  4 13  4 3 0)
     Any further DFT definition will be discarded
     Please, verify this is what you really want

               file H.pbe-rrkjus.UPF: wavefunction(s)  1S renormalized
               file V.pbe-spnl-rrkjus_psl.1.0.0.UPF: wavefunction(s)  3P 3D renormalized

     Subspace diagonalization in iterative solution of the eigenvalue problem:
     a serial algorithm will be used


     Parallelization info
     --------------------
     sticks:   dense  smooth     PW     G-vecs:    dense   smooth      PW
     Min        3051    1746    432               270999   117096   14629
     Max        3053    1747    437               271001   117099   14630
     Sum       18313   10477   2611              1626001   702581   87777



     bravais-lattice index     =            4
     lattice parameter (alat)  =      23.2937  a.u.
     unit-cell volume          =    8879.8548 (a.u.)^3
     number of atoms/cell      =           52
     number of atomic types    =            3
     number of electrons       =       211.00
     number of Kohn-Sham states=          127
     kinetic-energy cutoff     =      70.0000  Ry
     charge density cutoff     =     490.0000  Ry
     convergence threshold     =      1.0E-06
     mixing beta               =       0.7000
     number of iterations used =            8  plain     mixing
     Exchange-correlation      = RVV10 ( 1  4 13  4 3 0)

     celldm(1)=  23.293684  celldm(2)=   0.000000  celldm(3)=   0.811261
     celldm(4)=   0.000000  celldm(5)=   0.000000  celldm(6)=   0.000000

     crystal axes: (cart. coord. in units of alat)
               a(1) = (   1.000000   0.000000   0.000000 )  
               a(2) = (  -0.500000   0.866025   0.000000 )  
               a(3) = (   0.000000   0.000000   0.811261 )  

     reciprocal axes: (cart. coord. in units 2 pi/alat)
               b(1) = (  1.000000  0.577350 -0.000000 )  
               b(2) = (  0.000000  1.154701  0.000000 )  
               b(3) = (  0.000000 -0.000000  1.232649 )  


     PseudoPot. # 1 for H  read from file:
     /home/cristian/Escritorio/Proyecto_Grafeno/pseudopotenciales/H.pbe-rrkjus.UPF
     MD5 check sum: 7cc9d459525c9a0585f487a71c3c9563
     Pseudo is Ultrasoft, Zval =  1.0
     Generated by new atomic code, or converted to UPF format
     Using radial grid of 1061 points,  2 beta functions with: 
                l(1) =   0
                l(2) =   0
     Q(r) pseudized with 0 coefficients 


     PseudoPot. # 2 for C  read from file:
     /home/cristian/Escritorio/Proyecto_Grafeno/pseudopotenciales/C.pbe-n-rrkjus_psl.1.0.0.UPF
     MD5 check sum: 1fdd950c42eb37d8afe3dd2f8d12311e
     Pseudo is Ultrasoft + core correction, Zval =  4.0
     Generated using "atomic" code by A. Dal Corso v.6.3MaX
     Using radial grid of 1073 points,  4 beta functions with: 
                l(1) =   0
                l(2) =   0
                l(3) =   1
                l(4) =   1
     Q(r) pseudized with 0 coefficients 


     PseudoPot. # 3 for V  read from file:
     /home/cristian/Escritorio/Proyecto_Grafeno/pseudopotenciales/V.pbe-spnl-rrkjus_psl.1.0.0.UPF
     MD5 check sum: 79b3eb63147daf0b665d9f1bcc691206
     Pseudo is Ultrasoft + core correction, Zval = 13.0
     Generated using "atomic" code by A. Dal Corso v.6.2.2
     Using radial grid of 1181 points,  6 beta functions with: 
                l(1) =   0
                l(2) =   0
                l(3) =   1
                l(4) =   1
                l(5) =   2
                l(6) =   2
     Q(r) pseudized with 0 coefficients 


     vdW kernel table read from file rVV10_kernel_table
     MD5 check sum: b8e2538accc0c0b3206b45ba4daaba6c

     atomic species   valence    mass     pseudopotential
        H              1.00     1.00794     H ( 1.00)
        C              4.00    12.01070     C ( 1.00)
        V             13.00    50.94150     V ( 1.00)

     No symmetry found


                                    s                        frac. trans.

      isym =  1     identity                                     

 cryst.   s( 1) = (     1          0          0      )
                  (     0          1          0      )
                  (     0          0          1      )

 cart.    s( 1) = (  1.0000000  0.0000000  0.0000000 )
                  (  0.0000000  1.0000000  0.0000000 )
                  (  0.0000000  0.0000000  1.0000000 )


     point group C_1 (1)    
     there are  1 classes
     the character table:

       E    
A      1.00

     the symmetry operations in each class and the name of the first element:

     E        1
          identity                                               

   Cartesian axes

     site n.     atom                  positions (alat units)
         1           H   tau(   1) = (   0.2694937   0.4041452   0.2839414  )
         2           H   tau(   2) = (   0.3305063   0.4041452   0.2839414  )
         3           C   tau(   3) = (   0.0000000   0.0000000   0.0000000  )
         4           C   tau(   4) = (   0.0000000   0.1154701   0.0000000  )
         5           C   tau(   5) = (  -0.1000000   0.1732051   0.0000000  )
         6           C   tau(   6) = (  -0.1000000   0.2886751   0.0000000  )
         7           C   tau(   7) = (  -0.2000000   0.3464102   0.0000000  )
         8           C   tau(   8) = (  -0.2000000   0.4618802   0.0000000  )
         9           C   tau(   9) = (  -0.3000000   0.5196152   0.0000000  )
        10           C   tau(  10) = (  -0.3000000   0.6350853   0.0000000  )
        11           C   tau(  11) = (  -0.4000000   0.6928203   0.0000000  )
        12           C   tau(  12) = (  -0.4000000   0.8082904   0.0000000  )
        13           C   tau(  13) = (   0.2000000   0.0000000   0.0000000  )
        14           C   tau(  14) = (   0.2000000   0.1154701   0.0000000  )
        15           C   tau(  15) = (   0.1000000   0.1732051   0.0000000  )
        16           C   tau(  16) = (   0.1000000   0.2886751   0.0000000  )
        17           C   tau(  17) = (   0.0000000   0.3464102   0.0000000  )
        18           C   tau(  18) = (   0.0000000   0.4618802   0.0000000  )
        19           C   tau(  19) = (  -0.1000000   0.5196152   0.0000000  )
        20           C   tau(  20) = (  -0.1000000   0.6350853   0.0000000  )
        21           C   tau(  21) = (  -0.2000000   0.6928203   0.0000000  )
        22           C   tau(  22) = (  -0.2000000   0.8082904   0.0000000  )
        23           C   tau(  23) = (   0.4000000   0.0000000   0.0000000  )
        24           C   tau(  24) = (   0.4000000   0.1154701   0.0000000  )
        25           C   tau(  25) = (   0.3000000   0.1732051   0.0000000  )
        26           C   tau(  26) = (   0.3000000   0.2886751   0.0000000  )
        27           C   tau(  27) = (   0.2000000   0.3464102   0.0000000  )
        28           V   tau(  28) = (   0.2000000   0.4618802   0.0000000  )
        29           C   tau(  29) = (   0.1000000   0.5196152   0.0000000  )
        30           C   tau(  30) = (   0.1000000   0.6350853   0.0000000  )
        31           C   tau(  31) = (   0.0000000   0.6928203   0.0000000  )
        32           C   tau(  32) = (   0.0000000   0.8082904   0.0000000  )
        33           C   tau(  33) = (   0.6000000   0.0000000   0.0000000  )
        34           C   tau(  34) = (   0.6000000   0.1154701   0.0000000  )
        35           C   tau(  35) = (   0.5000000   0.1732051   0.0000000  )
        36           C   tau(  36) = (   0.5000000   0.2886751   0.0000000  )
        37           C   tau(  37) = (   0.4000000   0.3464102   0.0000000  )
        38           C   tau(  38) = (   0.4000000   0.4618802   0.0000000  )
        39           C   tau(  39) = (   0.3000000   0.5196152   0.0000000  )
        40           C   tau(  40) = (   0.3000000   0.6350853   0.0000000  )
        41           C   tau(  41) = (   0.2000000   0.6928203   0.0000000  )
        42           C   tau(  42) = (   0.2000000   0.8082904   0.0000000  )
        43           C   tau(  43) = (   0.8000000   0.0000000   0.0000000  )
        44           C   tau(  44) = (   0.8000000   0.1154701   0.0000000  )
        45           C   tau(  45) = (   0.7000000   0.1732051   0.0000000  )
        46           C   tau(  46) = (   0.7000000   0.2886751   0.0000000  )
        47           C   tau(  47) = (   0.6000000   0.3464102   0.0000000  )
        48           C   tau(  48) = (   0.6000000   0.4618802   0.0000000  )
        49           C   tau(  49) = (   0.5000000   0.5196152   0.0000000  )
        50           C   tau(  50) = (   0.5000000   0.6350853   0.0000000  )
        51           C   tau(  51) = (   0.4000000   0.6928203   0.0000000  )
        52           C   tau(  52) = (   0.4000000   0.8082904   0.0000000  )

   Crystallographic axes

     site n.     atom                  positions (cryst. coord.)
         1           H   tau(   1) = (  0.5028270  0.4666667  0.3500000  )
         2           H   tau(   2) = (  0.5638397  0.4666667  0.3500000  )
         3           C   tau(   3) = (  0.0000000  0.0000000  0.0000000  )
         4           C   tau(   4) = (  0.0666667  0.1333333  0.0000000  )
         5           C   tau(   5) = (  0.0000000  0.2000000  0.0000000  )
         6           C   tau(   6) = (  0.0666667  0.3333333  0.0000000  )
         7           C   tau(   7) = (  0.0000000  0.4000000  0.0000000  )
         8           C   tau(   8) = (  0.0666667  0.5333333  0.0000000  )
         9           C   tau(   9) = (  0.0000000  0.6000000  0.0000000  )
        10           C   tau(  10) = (  0.0666667  0.7333333  0.0000000  )
        11           C   tau(  11) = (  0.0000000  0.8000000  0.0000000  )
        12           C   tau(  12) = (  0.0666667  0.9333333  0.0000000  )
        13           C   tau(  13) = (  0.2000000  0.0000000  0.0000000  )
        14           C   tau(  14) = (  0.2666667  0.1333333  0.0000000  )
        15           C   tau(  15) = (  0.2000000  0.2000000  0.0000000  )
        16           C   tau(  16) = (  0.2666667  0.3333333  0.0000000  )
        17           C   tau(  17) = (  0.2000000  0.4000000  0.0000000  )
        18           C   tau(  18) = (  0.2666667  0.5333333  0.0000000  )
        19           C   tau(  19) = (  0.2000000  0.6000000  0.0000000  )
        20           C   tau(  20) = (  0.2666667  0.7333333  0.0000000  )
        21           C   tau(  21) = (  0.2000000  0.8000000  0.0000000  )
        22           C   tau(  22) = (  0.2666667  0.9333333  0.0000000  )
        23           C   tau(  23) = (  0.4000000  0.0000000  0.0000000  )
        24           C   tau(  24) = (  0.4666667  0.1333333  0.0000000  )
        25           C   tau(  25) = (  0.4000000  0.2000000  0.0000000  )
        26           C   tau(  26) = (  0.4666667  0.3333333  0.0000000  )
        27           C   tau(  27) = (  0.4000000  0.4000000  0.0000000  )
        28           V   tau(  28) = (  0.4666667  0.5333333  0.0000000  )
        29           C   tau(  29) = (  0.4000000  0.6000000  0.0000000  )
        30           C   tau(  30) = (  0.4666667  0.7333333  0.0000000  )
        31           C   tau(  31) = (  0.4000000  0.8000000  0.0000000  )
        32           C   tau(  32) = (  0.4666667  0.9333333  0.0000000  )
        33           C   tau(  33) = (  0.6000000  0.0000000  0.0000000  )
        34           C   tau(  34) = (  0.6666667  0.1333333  0.0000000  )
        35           C   tau(  35) = (  0.6000000  0.2000000  0.0000000  )
        36           C   tau(  36) = (  0.6666667  0.3333333  0.0000000  )
        37           C   tau(  37) = (  0.6000000  0.4000000  0.0000000  )
        38           C   tau(  38) = (  0.6666667  0.5333333  0.0000000  )
        39           C   tau(  39) = (  0.6000000  0.6000000  0.0000000  )
        40           C   tau(  40) = (  0.6666667  0.7333333  0.0000000  )
        41           C   tau(  41) = (  0.6000000  0.8000000  0.0000000  )
        42           C   tau(  42) = (  0.6666667  0.9333333  0.0000000  )
        43           C   tau(  43) = (  0.8000000  0.0000000  0.0000000  )
        44           C   tau(  44) = (  0.8666667  0.1333333  0.0000000  )
        45           C   tau(  45) = (  0.8000000  0.2000000  0.0000000  )
        46           C   tau(  46) = (  0.8666667  0.3333333  0.0000000  )
        47           C   tau(  47) = (  0.8000000  0.4000000  0.0000000  )
        48           C   tau(  48) = (  0.8666667  0.5333333  0.0000000  )
        49           C   tau(  49) = (  0.8000000  0.6000000  0.0000000  )
        50           C   tau(  50) = (  0.8666667  0.7333333  0.0000000  )
        51           C   tau(  51) = (  0.8000000  0.8000000  0.0000000  )
        52           C   tau(  52) = (  0.8666667  0.9333333  0.0000000  )

     number of k points=     1  Marzari-Vanderbilt smearing, width (Ry)=  0.0010
                       cart. coord. in units 2pi/alat
        k(    1) = (   0.0000000   0.0000000   0.0000000), wk =   2.0000000

                       cryst. coord.
        k(    1) = (   0.0000000   0.0000000   0.0000000), wk =   2.0000000

     Dense  grid:  1626001 G-vectors     FFT dimensions: ( 180, 180, 135)

     Smooth grid:   702581 G-vectors     FFT dimensions: ( 125, 125, 108)

     Dynamical RAM for                 wfc:      28.36 MB

     Dynamical RAM for     wfc (w. buffer):      28.36 MB

     Dynamical RAM for           str. fact:      12.41 MB

     Dynamical RAM for           local pot:       0.00 MB

     Dynamical RAM for          nlocal pot:      92.46 MB

     Dynamical RAM for                qrad:      19.73 MB

     Dynamical RAM for          rho,v,vnew:      29.46 MB

     Dynamical RAM for               rhoin:       9.82 MB

     Dynamical RAM for            rho*nmix:      66.16 MB

     Dynamical RAM for           G-vectors:      16.40 MB

     Dynamical RAM for          h,s,v(r/c):      11.81 MB

     Dynamical RAM for          <psi|beta>:       0.80 MB

     Dynamical RAM for                 psi:     113.46 MB

     Dynamical RAM for                hpsi:     113.46 MB

     Dynamical RAM for                spsi:     113.46 MB

     Dynamical RAM for      wfcinit/wfcrot:      93.90 MB

     Dynamical RAM for           addusdens:     971.75 MB

     Estimated static dynamical RAM per process >     319.78 MB

     Estimated max dynamical RAM per process >       1.26 GB

     Estimated total dynamical RAM >       7.57 GB

     Check: negative core charge=   -0.000002

     Initial potential from superposition of free atoms

     starting charge  210.80465, renormalised to  211.00000

     negative rho (up, down):  1.051E-04 0.000E+00


---------------------------------------------------------------------------------
Carrying out rVV10 run using the following parameters:
Nqs =      20    Nr_points =    1024   r_max =   100.000
b_value =  6.30000    beta =  0.00901
     q_mesh =  0.00010000  0.00030000  0.00058939  0.00100810
               0.00161396  0.00249058  0.00375900  0.00559430
               0.00824984  0.01209221  0.01765183  0.02569619
               0.03733578  0.05417739  0.07854596  0.11380545
               0.16482331  0.23864234  0.34545298  0.50000000

Gradients computed in Reciprocal space

---------------------------------------------------------------------------------


     Starting wfcs are  208 randomized atomic wfcs

     total cpu time spent up to now is       50.3 secs

     Self-consistent Calculation

     iteration #  1     ecut=    70.00 Ry     beta= 0.70
     Davidson diagonalization with overlap
     ethr =  1.00E-02,  avg # of iterations =  3.0

     negative rho (up, down):  2.815E-03 0.000E+00

     total cpu time spent up to now is      118.3 secs

     total energy              =    -755.18868063 Ry
     Harris-Foulkes estimate   =    -760.47384953 Ry
     estimated scf accuracy    <       8.02939069 Ry

     iteration #  2     ecut=    70.00 Ry     beta= 0.70
     Davidson diagonalization with overlap
     ethr =  3.81E-03,  avg # of iterations =  6.0

     negative rho (up, down):  2.452E-02 0.000E+00

     total cpu time spent up to now is      184.8 secs

     total energy              =    -748.53109766 Ry
     Harris-Foulkes estimate   =    -761.76680692 Ry
     estimated scf accuracy    <      44.58440170 Ry

     iteration #  3     ecut=    70.00 Ry     beta= 0.70
     Davidson diagonalization with overlap
     ethr =  3.81E-03,  avg # of iterations =  5.0

     negative rho (up, down):  4.320E-03 0.000E+00

     total cpu time spent up to now is      279.1 secs

     total energy              =    -755.38119218 Ry
     Harris-Foulkes estimate   =    -759.57127682 Ry
     estimated scf accuracy    <      21.80230478 Ry

     iteration #  4     ecut=    70.00 Ry     beta= 0.70
     Davidson diagonalization with overlap
     ethr =  3.81E-03,  avg # of iterations =  4.0

     negative rho (up, down):  4.369E-02 0.000E+00

     total cpu time spent up to now is      335.5 secs

     total energy              =    -757.09951630 Ry
     Harris-Foulkes estimate   =    -757.78400092 Ry
     estimated scf accuracy    <       1.99949787 Ry

     iteration #  5     ecut=    70.00 Ry     beta= 0.70
     Davidson diagonalization with overlap
     ethr =  9.48E-04,  avg # of iterations =  8.0

     negative rho (up, down):  6.720E-02 0.000E+00

     total cpu time spent up to now is      392.6 secs

     total energy              =    -757.27747671 Ry
     Harris-Foulkes estimate   =    -757.35860367 Ry
     estimated scf accuracy    <       0.30300959 Ry

     iteration #  6     ecut=    70.00 Ry     beta= 0.70
     Davidson diagonalization with overlap
     ethr =  1.44E-04,  avg # of iterations =  4.0

     negative rho (up, down):  5.953E-02 0.000E+00

     total cpu time spent up to now is      446.1 secs

     total energy              =    -757.29509044 Ry
     Harris-Foulkes estimate   =    -757.32554666 Ry
     estimated scf accuracy    <       0.19762437 Ry

     iteration #  7     ecut=    70.00 Ry     beta= 0.70
     Davidson diagonalization with overlap
     ethr =  9.37E-05,  avg # of iterations =  3.0

     negative rho (up, down):  4.192E-02 0.000E+00

     total cpu time spent up to now is      497.0 secs

     total energy              =    -757.30533912 Ry
     Harris-Foulkes estimate   =    -757.31545085 Ry
     estimated scf accuracy    <       0.10882663 Ry

     iteration #  8     ecut=    70.00 Ry     beta= 0.70
     Davidson diagonalization with overlap
     ethr =  5.16E-05,  avg # of iterations =  3.0

     negative rho (up, down):  2.918E-02 0.000E+00

     total cpu time spent up to now is      548.0 secs

     total energy              =    -757.31716131 Ry
     Harris-Foulkes estimate   =    -757.31404972 Ry
     estimated scf accuracy    <       0.03367693 Ry

     iteration #  9     ecut=    70.00 Ry     beta= 0.70
     Davidson diagonalization with overlap
     ethr =  1.60E-05,  avg # of iterations =  4.0

     negative rho (up, down):  3.411E-02 0.000E+00

     total cpu time spent up to now is      609.5 secs

     total energy              =    -757.32283260 Ry
     Harris-Foulkes estimate   =    -757.32650154 Ry
     estimated scf accuracy    <       0.02704007 Ry

     iteration # 10     ecut=    70.00 Ry     beta= 0.70
     Davidson diagonalization with overlap
     ethr =  1.28E-05,  avg # of iterations =  3.0

     negative rho (up, down):  3.645E-02 0.000E+00

     total cpu time spent up to now is      660.3 secs

     total energy              =    -757.32346142 Ry
     Harris-Foulkes estimate   =    -757.32691139 Ry
     estimated scf accuracy    <       0.02457184 Ry

     iteration # 11     ecut=    70.00 Ry     beta= 0.70
     Davidson diagonalization with overlap
     ethr =  1.16E-05,  avg # of iterations =  2.0

     negative rho (up, down):  3.356E-02 0.000E+00

     total cpu time spent up to now is      710.4 secs

     total energy              =    -757.32628884 Ry
     Harris-Foulkes estimate   =    -757.32542942 Ry
     estimated scf accuracy    <       0.01468465 Ry

     iteration # 12     ecut=    70.00 Ry     beta= 0.70
     Davidson diagonalization with overlap
     ethr =  6.96E-06,  avg # of iterations =  4.0

     negative rho (up, down):  3.311E-02 0.000E+00

     total cpu time spent up to now is      763.4 secs

     total energy              =    -757.32817094 Ry
     Harris-Foulkes estimate   =    -757.32730514 Ry
     estimated scf accuracy    <       0.00376978 Ry

     iteration # 13     ecut=    70.00 Ry     beta= 0.70
     Davidson diagonalization with overlap
     ethr =  1.79E-06,  avg # of iterations =  5.0

     negative rho (up, down):  3.373E-02 0.000E+00

     total cpu time spent up to now is      818.7 secs

     total energy              =    -757.32784670 Ry
     Harris-Foulkes estimate   =    -757.32842520 Ry
     estimated scf accuracy    <       0.00100982 Ry

     iteration # 14     ecut=    70.00 Ry     beta= 0.70
     Davidson diagonalization with overlap
     ethr =  4.79E-07,  avg # of iterations =  4.0

     negative rho (up, down):  3.361E-02 0.000E+00

     total cpu time spent up to now is      871.4 secs

     total energy              =    -757.32832448 Ry
     Harris-Foulkes estimate   =    -757.32798748 Ry
     estimated scf accuracy    <       0.00081742 Ry

     iteration # 15     ecut=    70.00 Ry     beta= 0.70
     Davidson diagonalization with overlap
     ethr =  3.87E-07,  avg # of iterations =  3.0

     negative rho (up, down):  3.381E-02 0.000E+00

     total cpu time spent up to now is      923.6 secs

     total energy              =    -757.32840617 Ry
     Harris-Foulkes estimate   =    -757.32841117 Ry
     estimated scf accuracy    <       0.00100326 Ry

     iteration # 16     ecut=    70.00 Ry     beta= 0.70
     Davidson diagonalization with overlap
     ethr =  3.87E-07,  avg # of iterations =  1.0

     negative rho (up, down):  3.395E-02 0.000E+00

     total cpu time spent up to now is      973.3 secs

     total energy              =    -757.32847969 Ry
     Harris-Foulkes estimate   =    -757.32843624 Ry
     estimated scf accuracy    <       0.00001278 Ry

     iteration # 17     ecut=    70.00 Ry     beta= 0.70
     Davidson diagonalization with overlap
     ethr =  6.06E-09,  avg # of iterations =  4.0

     negative rho (up, down):  3.403E-02 0.000E+00

     total cpu time spent up to now is     1030.4 secs

     total energy              =    -757.32848091 Ry
     Harris-Foulkes estimate   =    -757.32848428 Ry
     estimated scf accuracy    <       0.00002494 Ry

     iteration # 18     ecut=    70.00 Ry     beta= 0.70
     Davidson diagonalization with overlap
     ethr =  6.06E-09,  avg # of iterations = 13.0

     negative rho (up, down):  3.409E-02 0.000E+00

     total cpu time spent up to now is     1083.6 secs

     total energy              =    -757.32848297 Ry
     Harris-Foulkes estimate   =    -757.32848235 Ry
     estimated scf accuracy    <       0.00000312 Ry

     iteration # 19     ecut=    70.00 Ry     beta= 0.70
     Davidson diagonalization with overlap
     ethr =  1.48E-09,  avg # of iterations =  3.0

     negative rho (up, down):  3.410E-02 0.000E+00

     total cpu time spent up to now is     1133.6 secs

     total energy              =    -757.32848299 Ry
     Harris-Foulkes estimate   =    -757.32848317 Ry
     estimated scf accuracy    <       0.00000140 Ry

     iteration # 20     ecut=    70.00 Ry     beta= 0.70
     Davidson diagonalization with overlap
     ethr =  6.64E-10,  avg # of iterations =  3.0

     negative rho (up, down):  3.411E-02 0.000E+00

     total cpu time spent up to now is     1183.6 secs

     End of self-consistent calculation

          k = 0.0000 0.0000 0.0000 ( 87777 PWs)   bands (ev):

   -62.7577 -37.8579 -37.8578 -36.4895 -19.6239 -18.7812 -18.7810 -18.7115
   -18.6691 -18.6686 -18.2262 -16.9289 -16.9274 -16.9272 -16.7854 -16.7853
   -16.5094 -16.0703 -16.0702 -15.9819 -15.8245 -15.8242 -15.0767 -13.8775
   -13.8713 -13.8709 -13.8583 -13.8582 -13.1359 -12.9130 -12.9129 -12.8928
   -12.5023 -12.5022 -12.1041 -11.6377 -11.6375 -11.5150 -11.1343 -11.1342
   -10.1443  -9.3310  -9.3308  -9.2522  -9.1744  -9.1742  -9.0885  -9.0610
    -9.0609  -9.0472  -8.4608  -8.4607  -7.8899  -7.8897  -7.8568  -7.7773
    -7.6734  -7.2497  -7.2495  -6.9559  -6.9235  -6.8883  -6.7981  -6.6828
    -6.6795  -6.6653  -6.5868  -6.5867  -6.5413  -6.4303  -6.4301  -6.3878
    -6.3835  -6.3833  -6.3298  -6.2602  -5.2561  -5.2560  -5.1146  -5.1140
    -4.9411  -4.9408  -4.8322  -4.7441  -4.5993  -4.5829  -4.5824  -4.2238
    -3.9601  -3.9596  -3.7228  -3.7223  -3.6363  -3.6211  -3.4956  -3.4955
    -2.8822  -2.2270  -2.2266  -2.1964  -2.1958  -1.7010  -1.6740  -1.6736
    -0.5391  -0.1292  -0.1291   0.9085   1.0851   1.0908   1.0911   1.8280
     2.0837   2.0842   2.6094   2.9309   2.9313   2.9948   3.3528   3.5277
     3.6738   3.7415   3.7699   3.8239   3.9868   4.0355   4.0367

     occupation numbers 
     1.0000   1.0000   1.0000   1.0000   1.0000   1.0000   1.0000   1.0000
     1.0000   1.0000   1.0000   1.0000   1.0000   1.0000   1.0000   1.0000
     1.0000   1.0000   1.0000   1.0000   1.0000   1.0000   1.0000   1.0000
     1.0000   1.0000   1.0000   1.0000   1.0000   1.0000   1.0000   1.0000
     1.0000   1.0000   1.0000   1.0000   1.0000   1.0000   1.0000   1.0000
     1.0000   1.0000   1.0000   1.0000   1.0000   1.0000   1.0000   1.0000
     1.0000   1.0000   1.0000   1.0000   1.0000   1.0000   1.0000   1.0000
     1.0000   1.0000   1.0000   1.0000   1.0000   1.0000   1.0000   1.0000
     1.0000   1.0000   1.0000   1.0000   1.0000   1.0000   1.0000   1.0000
     1.0000   1.0000   1.0000   1.0000   1.0000   1.0000   1.0000   1.0000
     1.0000   1.0000   1.0000   1.0000   1.0000   1.0000   1.0000   1.0000
     1.0000   1.0000   1.0000   1.0000   1.0000   1.0000   1.0000   1.0000
     1.0000   1.0000   1.0000   1.0000   1.0000   1.0000   1.0000   1.0000
     1.0000   0.2514   0.2486   0.0000   0.0000   0.0000   0.0000   0.0000
     0.0000   0.0000   0.0000   0.0000   0.0000   0.0000   0.0000   0.0000
     0.0000   0.0000   0.0000   0.0000   0.0000   0.0000   0.0000

     the Fermi energy is    -0.1325 ev

!    total energy              =    -757.32848284 Ry
     Harris-Foulkes estimate   =    -757.32848305 Ry
     estimated scf accuracy    <       0.00000027 Ry

     The total energy is the sum of the following terms:

     one-electron contribution =   -2576.93971068 Ry
     hartree contribution      =    1335.29631498 Ry
     xc contribution           =    -252.65759596 Ry
     ewald contribution        =     736.97312231 Ry
     smearing contrib. (-TS)   =      -0.00061349 Ry

     convergence has been achieved in  20 iterations

     Writing output data file vanadio-sixhollow-distance-3.5.save/

     init_run     :     48.01s CPU     49.13s WALL (       1 calls)
     electrons    :   1099.60s CPU   1133.45s WALL (       1 calls)

     Called by init_run:
     wfcinit      :     21.44s CPU     21.59s WALL (       1 calls)
     wfcinit:atom :      0.02s CPU      0.04s WALL (       1 calls)
     wfcinit:wfcr :     21.25s CPU     21.34s WALL (       1 calls)
     potinit      :     11.88s CPU     12.29s WALL (       1 calls)
     hinit0       :     10.00s CPU     10.04s WALL (       1 calls)

     Called by electrons:
     c_bands      :    676.22s CPU    680.50s WALL (      20 calls)
     sum_band     :    208.89s CPU    220.15s WALL (      20 calls)
     v_of_rho     :    131.31s CPU    139.27s WALL (      21 calls)
     v_h          :      1.49s CPU      1.54s WALL (      21 calls)
     v_xc         :    129.82s CPU    137.73s WALL (      21 calls)
     newd         :     86.81s CPU     97.89s WALL (      21 calls)
     mix_rho      :      4.16s CPU      4.21s WALL (      20 calls)

     Called by c_bands:
     init_us_2    :      1.80s CPU      1.84s WALL (      41 calls)
     cegterg      :    671.23s CPU    675.48s WALL (      20 calls)

     Called by sum_band:
     sum_band:bec :      0.02s CPU      0.02s WALL (      20 calls)
     addusdens    :    126.58s CPU    137.24s WALL (      20 calls)

     Called by *egterg:
     h_psi        :    355.88s CPU    358.67s WALL (     106 calls)
     s_psi        :    117.75s CPU    117.90s WALL (     106 calls)
     g_psi        :      0.37s CPU      0.38s WALL (      85 calls)
     cdiaghg      :      7.78s CPU      7.78s WALL (     105 calls)
     cegterg:over :     85.01s CPU     85.14s WALL (      85 calls)
     cegterg:upda :     52.06s CPU     52.42s WALL (      85 calls)
     cegterg:last :     33.99s CPU     34.01s WALL (      20 calls)

     Called by h_psi:
     h_psi:pot    :    355.48s CPU    357.83s WALL (     106 calls)
     h_psi:calbec :    118.68s CPU    118.80s WALL (     106 calls)
     vloc_psi     :    119.19s CPU    121.31s WALL (     106 calls)
     add_vuspsi   :    117.61s CPU    117.73s WALL (     106 calls)

     General routines
     calbec       :    167.68s CPU    167.87s WALL (     126 calls)
     fft          :     75.13s CPU     78.11s WALL (    1321 calls)
     ffts         :      0.80s CPU      0.82s WALL (      41 calls)
     fftw         :    126.91s CPU    129.24s WALL (   14838 calls)
     interpolate  :      1.82s CPU      1.86s WALL (      21 calls)

     Parallel routines
     fft_scatt_xy :     34.19s CPU     34.62s WALL (   16200 calls)
     fft_scatt_yz :     73.63s CPU     77.46s WALL (   16200 calls)

     PWSCF        :  19m 8.85s CPU  19m44.05s WALL


   This run was terminated on:   0:49:56  31Aug2022            

=------------------------------------------------------------------------------=
   JOB DONE.
=------------------------------------------------------------------------------=
