
     Program PWSCF v.6.4.1 starts on 31Aug2022 at  0:11:20 

     This program is part of the open-source Quantum ESPRESSO suite
     for quantum simulation of materials; please cite
         "P. Giannozzi et al., J. Phys.:Condens. Matter 21 395502 (2009);
         "P. Giannozzi et al., J. Phys.:Condens. Matter 29 465901 (2017);
          URL http://www.quantum-espresso.org", 
     in publications or presentations arising from this work. More details at
     http://www.quantum-espresso.org/quote

     Parallel version (MPI), running on     6 processors

     MPI processes distributed on     1 nodes
     R & G space division:  proc/nbgrp/npool/nimage =       6
     Reading input from distance-4.0.in

     Current dimensions of program PWSCF are:
     Max number of different atomic species (ntypx) = 10
     Max number of k-points (npk) =  40000
     Max angular momentum in pseudopotentials (lmaxx) =  3

     IMPORTANT: XC functional enforced from input :
     Exchange-correlation      = RVV10 ( 1  4 13  4 3 0)
     Any further DFT definition will be discarded
     Please, verify this is what you really want

               file H.pbe-rrkjus.UPF: wavefunction(s)  1S renormalized
               file V.pbe-spnl-rrkjus_psl.1.0.0.UPF: wavefunction(s)  3P 3D renormalized

     Subspace diagonalization in iterative solution of the eigenvalue problem:
     a serial algorithm will be used


     Parallelization info
     --------------------
     sticks:   dense  smooth     PW     G-vecs:    dense   smooth      PW
     Min        3051    1746    432               270999   117096   14629
     Max        3053    1747    437               271001   117099   14630
     Sum       18313   10477   2611              1626001   702581   87777



     bravais-lattice index     =            4
     lattice parameter (alat)  =      23.2937  a.u.
     unit-cell volume          =    8879.8548 (a.u.)^3
     number of atoms/cell      =           52
     number of atomic types    =            3
     number of electrons       =       211.00
     number of Kohn-Sham states=          127
     kinetic-energy cutoff     =      70.0000  Ry
     charge density cutoff     =     490.0000  Ry
     convergence threshold     =      1.0E-06
     mixing beta               =       0.7000
     number of iterations used =            8  plain     mixing
     Exchange-correlation      = RVV10 ( 1  4 13  4 3 0)

     celldm(1)=  23.293684  celldm(2)=   0.000000  celldm(3)=   0.811261
     celldm(4)=   0.000000  celldm(5)=   0.000000  celldm(6)=   0.000000

     crystal axes: (cart. coord. in units of alat)
               a(1) = (   1.000000   0.000000   0.000000 )  
               a(2) = (  -0.500000   0.866025   0.000000 )  
               a(3) = (   0.000000   0.000000   0.811261 )  

     reciprocal axes: (cart. coord. in units 2 pi/alat)
               b(1) = (  1.000000  0.577350 -0.000000 )  
               b(2) = (  0.000000  1.154701  0.000000 )  
               b(3) = (  0.000000 -0.000000  1.232649 )  


     PseudoPot. # 1 for H  read from file:
     /home/cristian/Escritorio/Proyecto_Grafeno/pseudopotenciales/H.pbe-rrkjus.UPF
     MD5 check sum: 7cc9d459525c9a0585f487a71c3c9563
     Pseudo is Ultrasoft, Zval =  1.0
     Generated by new atomic code, or converted to UPF format
     Using radial grid of 1061 points,  2 beta functions with: 
                l(1) =   0
                l(2) =   0
     Q(r) pseudized with 0 coefficients 


     PseudoPot. # 2 for C  read from file:
     /home/cristian/Escritorio/Proyecto_Grafeno/pseudopotenciales/C.pbe-n-rrkjus_psl.1.0.0.UPF
     MD5 check sum: 1fdd950c42eb37d8afe3dd2f8d12311e
     Pseudo is Ultrasoft + core correction, Zval =  4.0
     Generated using "atomic" code by A. Dal Corso v.6.3MaX
     Using radial grid of 1073 points,  4 beta functions with: 
                l(1) =   0
                l(2) =   0
                l(3) =   1
                l(4) =   1
     Q(r) pseudized with 0 coefficients 


     PseudoPot. # 3 for V  read from file:
     /home/cristian/Escritorio/Proyecto_Grafeno/pseudopotenciales/V.pbe-spnl-rrkjus_psl.1.0.0.UPF
     MD5 check sum: 79b3eb63147daf0b665d9f1bcc691206
     Pseudo is Ultrasoft + core correction, Zval = 13.0
     Generated using "atomic" code by A. Dal Corso v.6.2.2
     Using radial grid of 1181 points,  6 beta functions with: 
                l(1) =   0
                l(2) =   0
                l(3) =   1
                l(4) =   1
                l(5) =   2
                l(6) =   2
     Q(r) pseudized with 0 coefficients 


     vdW kernel table read from file rVV10_kernel_table
     MD5 check sum: b8e2538accc0c0b3206b45ba4daaba6c

     atomic species   valence    mass     pseudopotential
        H              1.00     1.00794     H ( 1.00)
        C              4.00    12.01070     C ( 1.00)
        V             13.00    50.94150     V ( 1.00)

     No symmetry found


                                    s                        frac. trans.

      isym =  1     identity                                     

 cryst.   s( 1) = (     1          0          0      )
                  (     0          1          0      )
                  (     0          0          1      )

 cart.    s( 1) = (  1.0000000  0.0000000  0.0000000 )
                  (  0.0000000  1.0000000  0.0000000 )
                  (  0.0000000  0.0000000  1.0000000 )


     point group C_1 (1)    
     there are  1 classes
     the character table:

       E    
A      1.00

     the symmetry operations in each class and the name of the first element:

     E        1
          identity                                               

   Cartesian axes

     site n.     atom                  positions (alat units)
         1           H   tau(   1) = (   0.2694937   0.4041452   0.3245045  )
         2           H   tau(   2) = (   0.3305063   0.4041452   0.3245045  )
         3           C   tau(   3) = (   0.0000000   0.0000000   0.0000000  )
         4           C   tau(   4) = (   0.0000000   0.1154701   0.0000000  )
         5           C   tau(   5) = (  -0.1000000   0.1732051   0.0000000  )
         6           C   tau(   6) = (  -0.1000000   0.2886751   0.0000000  )
         7           C   tau(   7) = (  -0.2000000   0.3464102   0.0000000  )
         8           C   tau(   8) = (  -0.2000000   0.4618802   0.0000000  )
         9           C   tau(   9) = (  -0.3000000   0.5196152   0.0000000  )
        10           C   tau(  10) = (  -0.3000000   0.6350853   0.0000000  )
        11           C   tau(  11) = (  -0.4000000   0.6928203   0.0000000  )
        12           C   tau(  12) = (  -0.4000000   0.8082904   0.0000000  )
        13           C   tau(  13) = (   0.2000000   0.0000000   0.0000000  )
        14           C   tau(  14) = (   0.2000000   0.1154701   0.0000000  )
        15           C   tau(  15) = (   0.1000000   0.1732051   0.0000000  )
        16           C   tau(  16) = (   0.1000000   0.2886751   0.0000000  )
        17           C   tau(  17) = (   0.0000000   0.3464102   0.0000000  )
        18           C   tau(  18) = (   0.0000000   0.4618802   0.0000000  )
        19           C   tau(  19) = (  -0.1000000   0.5196152   0.0000000  )
        20           C   tau(  20) = (  -0.1000000   0.6350853   0.0000000  )
        21           C   tau(  21) = (  -0.2000000   0.6928203   0.0000000  )
        22           C   tau(  22) = (  -0.2000000   0.8082904   0.0000000  )
        23           C   tau(  23) = (   0.4000000   0.0000000   0.0000000  )
        24           C   tau(  24) = (   0.4000000   0.1154701   0.0000000  )
        25           C   tau(  25) = (   0.3000000   0.1732051   0.0000000  )
        26           C   tau(  26) = (   0.3000000   0.2886751   0.0000000  )
        27           C   tau(  27) = (   0.2000000   0.3464102   0.0000000  )
        28           V   tau(  28) = (   0.2000000   0.4618802   0.0000000  )
        29           C   tau(  29) = (   0.1000000   0.5196152   0.0000000  )
        30           C   tau(  30) = (   0.1000000   0.6350853   0.0000000  )
        31           C   tau(  31) = (   0.0000000   0.6928203   0.0000000  )
        32           C   tau(  32) = (   0.0000000   0.8082904   0.0000000  )
        33           C   tau(  33) = (   0.6000000   0.0000000   0.0000000  )
        34           C   tau(  34) = (   0.6000000   0.1154701   0.0000000  )
        35           C   tau(  35) = (   0.5000000   0.1732051   0.0000000  )
        36           C   tau(  36) = (   0.5000000   0.2886751   0.0000000  )
        37           C   tau(  37) = (   0.4000000   0.3464102   0.0000000  )
        38           C   tau(  38) = (   0.4000000   0.4618802   0.0000000  )
        39           C   tau(  39) = (   0.3000000   0.5196152   0.0000000  )
        40           C   tau(  40) = (   0.3000000   0.6350853   0.0000000  )
        41           C   tau(  41) = (   0.2000000   0.6928203   0.0000000  )
        42           C   tau(  42) = (   0.2000000   0.8082904   0.0000000  )
        43           C   tau(  43) = (   0.8000000   0.0000000   0.0000000  )
        44           C   tau(  44) = (   0.8000000   0.1154701   0.0000000  )
        45           C   tau(  45) = (   0.7000000   0.1732051   0.0000000  )
        46           C   tau(  46) = (   0.7000000   0.2886751   0.0000000  )
        47           C   tau(  47) = (   0.6000000   0.3464102   0.0000000  )
        48           C   tau(  48) = (   0.6000000   0.4618802   0.0000000  )
        49           C   tau(  49) = (   0.5000000   0.5196152   0.0000000  )
        50           C   tau(  50) = (   0.5000000   0.6350853   0.0000000  )
        51           C   tau(  51) = (   0.4000000   0.6928203   0.0000000  )
        52           C   tau(  52) = (   0.4000000   0.8082904   0.0000000  )

   Crystallographic axes

     site n.     atom                  positions (cryst. coord.)
         1           H   tau(   1) = (  0.5028270  0.4666667  0.4000000  )
         2           H   tau(   2) = (  0.5638397  0.4666667  0.4000000  )
         3           C   tau(   3) = (  0.0000000  0.0000000  0.0000000  )
         4           C   tau(   4) = (  0.0666667  0.1333333  0.0000000  )
         5           C   tau(   5) = (  0.0000000  0.2000000  0.0000000  )
         6           C   tau(   6) = (  0.0666667  0.3333333  0.0000000  )
         7           C   tau(   7) = (  0.0000000  0.4000000  0.0000000  )
         8           C   tau(   8) = (  0.0666667  0.5333333  0.0000000  )
         9           C   tau(   9) = (  0.0000000  0.6000000  0.0000000  )
        10           C   tau(  10) = (  0.0666667  0.7333333  0.0000000  )
        11           C   tau(  11) = (  0.0000000  0.8000000  0.0000000  )
        12           C   tau(  12) = (  0.0666667  0.9333333  0.0000000  )
        13           C   tau(  13) = (  0.2000000  0.0000000  0.0000000  )
        14           C   tau(  14) = (  0.2666667  0.1333333  0.0000000  )
        15           C   tau(  15) = (  0.2000000  0.2000000  0.0000000  )
        16           C   tau(  16) = (  0.2666667  0.3333333  0.0000000  )
        17           C   tau(  17) = (  0.2000000  0.4000000  0.0000000  )
        18           C   tau(  18) = (  0.2666667  0.5333333  0.0000000  )
        19           C   tau(  19) = (  0.2000000  0.6000000  0.0000000  )
        20           C   tau(  20) = (  0.2666667  0.7333333  0.0000000  )
        21           C   tau(  21) = (  0.2000000  0.8000000  0.0000000  )
        22           C   tau(  22) = (  0.2666667  0.9333333  0.0000000  )
        23           C   tau(  23) = (  0.4000000  0.0000000  0.0000000  )
        24           C   tau(  24) = (  0.4666667  0.1333333  0.0000000  )
        25           C   tau(  25) = (  0.4000000  0.2000000  0.0000000  )
        26           C   tau(  26) = (  0.4666667  0.3333333  0.0000000  )
        27           C   tau(  27) = (  0.4000000  0.4000000  0.0000000  )
        28           V   tau(  28) = (  0.4666667  0.5333333  0.0000000  )
        29           C   tau(  29) = (  0.4000000  0.6000000  0.0000000  )
        30           C   tau(  30) = (  0.4666667  0.7333333  0.0000000  )
        31           C   tau(  31) = (  0.4000000  0.8000000  0.0000000  )
        32           C   tau(  32) = (  0.4666667  0.9333333  0.0000000  )
        33           C   tau(  33) = (  0.6000000  0.0000000  0.0000000  )
        34           C   tau(  34) = (  0.6666667  0.1333333  0.0000000  )
        35           C   tau(  35) = (  0.6000000  0.2000000  0.0000000  )
        36           C   tau(  36) = (  0.6666667  0.3333333  0.0000000  )
        37           C   tau(  37) = (  0.6000000  0.4000000  0.0000000  )
        38           C   tau(  38) = (  0.6666667  0.5333333  0.0000000  )
        39           C   tau(  39) = (  0.6000000  0.6000000  0.0000000  )
        40           C   tau(  40) = (  0.6666667  0.7333333  0.0000000  )
        41           C   tau(  41) = (  0.6000000  0.8000000  0.0000000  )
        42           C   tau(  42) = (  0.6666667  0.9333333  0.0000000  )
        43           C   tau(  43) = (  0.8000000  0.0000000  0.0000000  )
        44           C   tau(  44) = (  0.8666667  0.1333333  0.0000000  )
        45           C   tau(  45) = (  0.8000000  0.2000000  0.0000000  )
        46           C   tau(  46) = (  0.8666667  0.3333333  0.0000000  )
        47           C   tau(  47) = (  0.8000000  0.4000000  0.0000000  )
        48           C   tau(  48) = (  0.8666667  0.5333333  0.0000000  )
        49           C   tau(  49) = (  0.8000000  0.6000000  0.0000000  )
        50           C   tau(  50) = (  0.8666667  0.7333333  0.0000000  )
        51           C   tau(  51) = (  0.8000000  0.8000000  0.0000000  )
        52           C   tau(  52) = (  0.8666667  0.9333333  0.0000000  )

     number of k points=     1  Marzari-Vanderbilt smearing, width (Ry)=  0.0010
                       cart. coord. in units 2pi/alat
        k(    1) = (   0.0000000   0.0000000   0.0000000), wk =   2.0000000

                       cryst. coord.
        k(    1) = (   0.0000000   0.0000000   0.0000000), wk =   2.0000000

     Dense  grid:  1626001 G-vectors     FFT dimensions: ( 180, 180, 135)

     Smooth grid:   702581 G-vectors     FFT dimensions: ( 125, 125, 108)

     Dynamical RAM for                 wfc:      28.36 MB

     Dynamical RAM for     wfc (w. buffer):      28.36 MB

     Dynamical RAM for           str. fact:      12.41 MB

     Dynamical RAM for           local pot:       0.00 MB

     Dynamical RAM for          nlocal pot:      92.46 MB

     Dynamical RAM for                qrad:      19.73 MB

     Dynamical RAM for          rho,v,vnew:      29.46 MB

     Dynamical RAM for               rhoin:       9.82 MB

     Dynamical RAM for            rho*nmix:      66.16 MB

     Dynamical RAM for           G-vectors:      16.40 MB

     Dynamical RAM for          h,s,v(r/c):      11.81 MB

     Dynamical RAM for          <psi|beta>:       0.80 MB

     Dynamical RAM for                 psi:     113.46 MB

     Dynamical RAM for                hpsi:     113.46 MB

     Dynamical RAM for                spsi:     113.46 MB

     Dynamical RAM for      wfcinit/wfcrot:      93.90 MB

     Dynamical RAM for           addusdens:     971.75 MB

     Estimated static dynamical RAM per process >     319.78 MB

     Estimated max dynamical RAM per process >       1.26 GB

     Estimated total dynamical RAM >       7.57 GB

     Check: negative core charge=   -0.000002

     Initial potential from superposition of free atoms

     starting charge  210.80465, renormalised to  211.00000

     negative rho (up, down):  9.730E-05 0.000E+00


---------------------------------------------------------------------------------
Carrying out rVV10 run using the following parameters:
Nqs =      20    Nr_points =    1024   r_max =   100.000
b_value =  6.30000    beta =  0.00901
     q_mesh =  0.00010000  0.00030000  0.00058939  0.00100810
               0.00161396  0.00249058  0.00375900  0.00559430
               0.00824984  0.01209221  0.01765183  0.02569619
               0.03733578  0.05417739  0.07854596  0.11380545
               0.16482331  0.23864234  0.34545298  0.50000000

Gradients computed in Reciprocal space

---------------------------------------------------------------------------------


     Starting wfcs are  208 randomized atomic wfcs

     total cpu time spent up to now is       49.7 secs

     Self-consistent Calculation

     iteration #  1     ecut=    70.00 Ry     beta= 0.70
     Davidson diagonalization with overlap
     ethr =  1.00E-02,  avg # of iterations =  3.0

     negative rho (up, down):  2.851E-03 0.000E+00

     total cpu time spent up to now is      121.7 secs

     total energy              =    -755.28040184 Ry
     Harris-Foulkes estimate   =    -760.47450096 Ry
     estimated scf accuracy    <       7.93117974 Ry

     iteration #  2     ecut=    70.00 Ry     beta= 0.70
     Davidson diagonalization with overlap
     ethr =  3.76E-03,  avg # of iterations =  6.0

     negative rho (up, down):  2.218E-02 0.000E+00

     total cpu time spent up to now is      192.4 secs

     total energy              =    -748.64687814 Ry
     Harris-Foulkes estimate   =    -761.34563253 Ry
     estimated scf accuracy    <      42.43259984 Ry

     iteration #  3     ecut=    70.00 Ry     beta= 0.70
     Davidson diagonalization with overlap
     ethr =  3.76E-03,  avg # of iterations =  5.0

     negative rho (up, down):  4.001E-03 0.000E+00

     total cpu time spent up to now is      282.6 secs

     total energy              =    -755.36186190 Ry
     Harris-Foulkes estimate   =    -759.71571169 Ry
     estimated scf accuracy    <      22.91342258 Ry

     iteration #  4     ecut=    70.00 Ry     beta= 0.70
     Davidson diagonalization with overlap
     ethr =  3.76E-03,  avg # of iterations =  4.0

     negative rho (up, down):  4.143E-02 0.000E+00

     total cpu time spent up to now is      341.0 secs

     total energy              =    -757.10941589 Ry
     Harris-Foulkes estimate   =    -757.76600904 Ry
     estimated scf accuracy    <       1.90486097 Ry

     iteration #  5     ecut=    70.00 Ry     beta= 0.70
     Davidson diagonalization with overlap
     ethr =  9.03E-04,  avg # of iterations =  6.0

     negative rho (up, down):  6.431E-02 0.000E+00

     total cpu time spent up to now is      399.2 secs

     total energy              =    -757.27971028 Ry
     Harris-Foulkes estimate   =    -757.35967758 Ry
     estimated scf accuracy    <       0.30667779 Ry

     iteration #  6     ecut=    70.00 Ry     beta= 0.70
     Davidson diagonalization with overlap
     ethr =  1.45E-04,  avg # of iterations =  3.0

     negative rho (up, down):  5.780E-02 0.000E+00

     total cpu time spent up to now is      457.7 secs

     total energy              =    -757.29578680 Ry
     Harris-Foulkes estimate   =    -757.32703926 Ry
     estimated scf accuracy    <       0.20585463 Ry

     iteration #  7     ecut=    70.00 Ry     beta= 0.70
     Davidson diagonalization with overlap
     ethr =  9.76E-05,  avg # of iterations =  2.0

     negative rho (up, down):  4.032E-02 0.000E+00

     total cpu time spent up to now is      512.2 secs

     total energy              =    -757.30470900 Ry
     Harris-Foulkes estimate   =    -757.31560300 Ry
     estimated scf accuracy    <       0.11405625 Ry

     iteration #  8     ecut=    70.00 Ry     beta= 0.70
     Davidson diagonalization with overlap
     ethr =  5.41E-05,  avg # of iterations =  5.0

     negative rho (up, down):  2.948E-02 0.000E+00

     total cpu time spent up to now is      567.6 secs

     total energy              =    -757.31528512 Ry
     Harris-Foulkes estimate   =    -757.31382699 Ry
     estimated scf accuracy    <       0.03943479 Ry

     iteration #  9     ecut=    70.00 Ry     beta= 0.70
     Davidson diagonalization with overlap
     ethr =  1.87E-05,  avg # of iterations =  4.0

     negative rho (up, down):  3.202E-02 0.000E+00

     total cpu time spent up to now is      631.0 secs

     total energy              =    -757.32246981 Ry
     Harris-Foulkes estimate   =    -757.32411640 Ry
     estimated scf accuracy    <       0.02541893 Ry

     iteration # 10     ecut=    70.00 Ry     beta= 0.70
     Davidson diagonalization with overlap
     ethr =  1.20E-05,  avg # of iterations =  3.0

     negative rho (up, down):  3.638E-02 0.000E+00

     total cpu time spent up to now is      688.2 secs

     total energy              =    -757.32165808 Ry
     Harris-Foulkes estimate   =    -757.32556407 Ry
     estimated scf accuracy    <       0.02119586 Ry

     iteration # 11     ecut=    70.00 Ry     beta= 0.70
     Davidson diagonalization with overlap
     ethr =  1.00E-05,  avg # of iterations =  2.0

     negative rho (up, down):  3.318E-02 0.000E+00

     total cpu time spent up to now is      741.8 secs

     total energy              =    -757.32502525 Ry
     Harris-Foulkes estimate   =    -757.32404218 Ry
     estimated scf accuracy    <       0.01652188 Ry

     iteration # 12     ecut=    70.00 Ry     beta= 0.70
     Davidson diagonalization with overlap
     ethr =  7.83E-06,  avg # of iterations =  4.0

     negative rho (up, down):  3.308E-02 0.000E+00

     total cpu time spent up to now is      799.7 secs

     total energy              =    -757.32675709 Ry
     Harris-Foulkes estimate   =    -757.32594110 Ry
     estimated scf accuracy    <       0.00157988 Ry

     iteration # 13     ecut=    70.00 Ry     beta= 0.70
     Davidson diagonalization with overlap
     ethr =  7.49E-07,  avg # of iterations = 15.0

     negative rho (up, down):  3.358E-02 0.000E+00

     total cpu time spent up to now is      862.5 secs

     total energy              =    -757.32654448 Ry
     Harris-Foulkes estimate   =    -757.32698325 Ry
     estimated scf accuracy    <       0.00036714 Ry

     iteration # 14     ecut=    70.00 Ry     beta= 0.70
     Davidson diagonalization with overlap
     ethr =  1.74E-07,  avg # of iterations =  4.0

     negative rho (up, down):  3.364E-02 0.000E+00

     total cpu time spent up to now is      918.3 secs

     total energy              =    -757.32693994 Ry
     Harris-Foulkes estimate   =    -757.32662149 Ry
     estimated scf accuracy    <       0.00021131 Ry

     iteration # 15     ecut=    70.00 Ry     beta= 0.70
     Davidson diagonalization with overlap
     ethr =  1.00E-07,  avg # of iterations =  3.0

     negative rho (up, down):  3.387E-02 0.000E+00

     total cpu time spent up to now is      973.1 secs

     total energy              =    -757.32698019 Ry
     Harris-Foulkes estimate   =    -757.32696293 Ry
     estimated scf accuracy    <       0.00012913 Ry

     iteration # 16     ecut=    70.00 Ry     beta= 0.70
     Davidson diagonalization with overlap
     ethr =  6.12E-08,  avg # of iterations =  2.0

     negative rho (up, down):  3.394E-02 0.000E+00

     total cpu time spent up to now is     1027.5 secs

     total energy              =    -757.32698440 Ry
     Harris-Foulkes estimate   =    -757.32698797 Ry
     estimated scf accuracy    <       0.00002151 Ry

     iteration # 17     ecut=    70.00 Ry     beta= 0.70
     Davidson diagonalization with overlap
     ethr =  1.02E-08,  avg # of iterations =  3.0

     negative rho (up, down):  3.395E-02 0.000E+00

     total cpu time spent up to now is     1081.4 secs

     total energy              =    -757.32698361 Ry
     Harris-Foulkes estimate   =    -757.32698717 Ry
     estimated scf accuracy    <       0.00000942 Ry

     iteration # 18     ecut=    70.00 Ry     beta= 0.70
     Davidson diagonalization with overlap
     ethr =  4.46E-09,  avg # of iterations =  1.0

     negative rho (up, down):  3.401E-02 0.000E+00

     total cpu time spent up to now is     1131.4 secs

     End of self-consistent calculation

          k = 0.0000 0.0000 0.0000 ( 87777 PWs)   bands (ev):

   -62.7605 -37.8607 -37.8601 -36.4926 -19.6247 -18.7822 -18.7819 -18.7121
   -18.6697 -18.6694 -18.2272 -16.9297 -16.9282 -16.9281 -16.7862 -16.7862
   -16.5102 -16.0712 -16.0710 -15.9826 -15.8254 -15.8251 -15.0777 -13.8784
   -13.8723 -13.8721 -13.8589 -13.8589 -13.1366 -12.9138 -12.9138 -12.8936
   -12.5031 -12.5030 -12.1050 -11.6386 -11.6384 -11.5158 -11.1353 -11.1351
   -10.1453  -9.3319  -9.3317  -9.2533  -9.1753  -9.1751  -9.0893  -9.0618
    -9.0616  -9.0479  -8.4616  -8.4615  -7.8907  -7.8905  -7.8578  -7.7762
    -7.6743  -7.2505  -7.2502  -6.9290  -6.9245  -6.8889  -6.7302  -6.6835
    -6.6807  -6.6718  -6.5877  -6.5875  -6.5423  -6.4312  -6.4310  -6.3885
    -6.3842  -6.3840  -6.3305  -6.2740  -5.2568  -5.2568  -5.1164  -5.1159
    -4.9418  -4.9416  -4.8331  -4.7448  -4.5999  -4.5837  -4.5834  -4.2253
    -3.9608  -3.9603  -3.7236  -3.7233  -3.6369  -3.6231  -3.4964  -3.4961
    -2.8838  -2.2278  -2.2277  -2.1981  -2.1980  -1.7016  -1.6745  -1.6743
    -0.5395  -0.1304  -0.1303   0.8931   1.0845   1.0902   1.0904   1.8277
     2.0831   2.0834   2.6226   2.9303   2.9306   2.9942   3.3683   3.5329
     3.6500   3.7420   3.7702   3.8241   3.9961   4.0351   4.0361

     occupation numbers 
     1.0000   1.0000   1.0000   1.0000   1.0000   1.0000   1.0000   1.0000
     1.0000   1.0000   1.0000   1.0000   1.0000   1.0000   1.0000   1.0000
     1.0000   1.0000   1.0000   1.0000   1.0000   1.0000   1.0000   1.0000
     1.0000   1.0000   1.0000   1.0000   1.0000   1.0000   1.0000   1.0000
     1.0000   1.0000   1.0000   1.0000   1.0000   1.0000   1.0000   1.0000
     1.0000   1.0000   1.0000   1.0000   1.0000   1.0000   1.0000   1.0000
     1.0000   1.0000   1.0000   1.0000   1.0000   1.0000   1.0000   1.0000
     1.0000   1.0000   1.0000   1.0000   1.0000   1.0000   1.0000   1.0000
     1.0000   1.0000   1.0000   1.0000   1.0000   1.0000   1.0000   1.0000
     1.0000   1.0000   1.0000   1.0000   1.0000   1.0000   1.0000   1.0000
     1.0000   1.0000   1.0000   1.0000   1.0000   1.0000   1.0000   1.0000
     1.0000   1.0000   1.0000   1.0000   1.0000   1.0000   1.0000   1.0000
     1.0000   1.0000   1.0000   1.0000   1.0000   1.0000   1.0000   1.0000
     1.0000   0.2520   0.2480   0.0000   0.0000   0.0000   0.0000   0.0000
     0.0000   0.0000   0.0000   0.0000   0.0000   0.0000   0.0000   0.0000
     0.0000   0.0000   0.0000   0.0000   0.0000   0.0000   0.0000

     the Fermi energy is    -0.1337 ev

!    total energy              =    -757.32698531 Ry
     Harris-Foulkes estimate   =    -757.32698451 Ry
     estimated scf accuracy    <       0.00000097 Ry

     The total energy is the sum of the following terms:

     one-electron contribution =   -2571.18716552 Ry
     hartree contribution      =    1332.41867201 Ry
     xc contribution           =    -252.65692814 Ry
     ewald contribution        =     734.09904982 Ry
     smearing contrib. (-TS)   =      -0.00061348 Ry

     convergence has been achieved in  18 iterations

     Writing output data file vanadio-sixhollow-distance-4.0.save/

     init_run     :     47.20s CPU     48.54s WALL (       1 calls)
     electrons    :   1049.70s CPU   1081.86s WALL (       1 calls)

     Called by init_run:
     wfcinit      :     22.25s CPU     22.42s WALL (       1 calls)
     wfcinit:atom :      0.03s CPU      0.05s WALL (       1 calls)
     wfcinit:wfcr :     22.06s CPU     22.16s WALL (       1 calls)
     potinit      :     11.00s CPU     11.43s WALL (       1 calls)
     hinit0       :      9.13s CPU      9.15s WALL (       1 calls)

     Called by electrons:
     c_bands      :    645.39s CPU    649.51s WALL (      18 calls)
     sum_band     :    202.67s CPU    213.40s WALL (      18 calls)
     v_of_rho     :    123.05s CPU    130.67s WALL (      19 calls)
     v_h          :      1.42s CPU      1.45s WALL (      19 calls)
     v_xc         :    121.63s CPU    129.22s WALL (      19 calls)
     newd         :     83.02s CPU     93.61s WALL (      19 calls)
     mix_rho      :      3.85s CPU      3.92s WALL (      18 calls)

     Called by c_bands:
     init_us_2    :      1.68s CPU      1.71s WALL (      37 calls)
     cegterg      :    640.83s CPU    644.93s WALL (      18 calls)

     Called by sum_band:
     sum_band:bec :      0.01s CPU      0.01s WALL (      18 calls)
     addusdens    :    125.99s CPU    136.16s WALL (      18 calls)

     Called by *egterg:
     h_psi        :    343.10s CPU    346.10s WALL (      94 calls)
     s_psi        :    113.79s CPU    113.89s WALL (      94 calls)
     g_psi        :      0.36s CPU      0.36s WALL (      75 calls)
     cdiaghg      :      7.30s CPU      7.30s WALL (      93 calls)
     cegterg:over :     78.79s CPU     78.86s WALL (      75 calls)
     cegterg:upda :     50.77s CPU     51.06s WALL (      75 calls)
     cegterg:last :     31.96s CPU     31.99s WALL (      18 calls)

     Called by h_psi:
     h_psi:pot    :    342.74s CPU    345.27s WALL (      94 calls)
     h_psi:calbec :    113.63s CPU    113.77s WALL (      94 calls)
     vloc_psi     :    115.03s CPU    117.34s WALL (      94 calls)
     add_vuspsi   :    114.08s CPU    114.17s WALL (      94 calls)

     General routines
     calbec       :    159.85s CPU    160.04s WALL (     112 calls)
     fft          :     70.00s CPU     73.01s WALL (    1195 calls)
     ffts         :      0.70s CPU      0.73s WALL (      37 calls)
     fftw         :    120.80s CPU    123.27s WALL (   13500 calls)
     interpolate  :      1.66s CPU      1.73s WALL (      19 calls)

     Parallel routines
     fft_scatt_xy :     34.58s CPU     35.05s WALL (   14732 calls)
     fft_scatt_yz :     63.30s CPU     67.15s WALL (   14732 calls)

     PWSCF        :  18m18.08s CPU  18m51.86s WALL


   This run was terminated on:   0:30:12  31Aug2022            

=------------------------------------------------------------------------------=
   JOB DONE.
=------------------------------------------------------------------------------=
