
     Program PWSCF v.6.4.1 starts on 20May2022 at  0:14:57 

     This program is part of the open-source Quantum ESPRESSO suite
     for quantum simulation of materials; please cite
         "P. Giannozzi et al., J. Phys.:Condens. Matter 21 395502 (2009);
         "P. Giannozzi et al., J. Phys.:Condens. Matter 29 465901 (2017);
          URL http://www.quantum-espresso.org", 
     in publications or presentations arising from this work. More details at
     http://www.quantum-espresso.org/quote

     Parallel version (MPI), running on     6 processors

     MPI processes distributed on     1 nodes
     R & G space division:  proc/nbgrp/npool/nimage =       6
     Reading input from gr-v.in

     Current dimensions of program PWSCF are:
     Max number of different atomic species (ntypx) = 10
     Max number of k-points (npk) =  40000
     Max angular momentum in pseudopotentials (lmaxx) =  3
               file H.pbe-rrkjus.UPF: wavefunction(s)  1S renormalized
               file H.pbe-rrkjus.UPF: wavefunction(s)  1S renormalized
               file V.pbe-spnl-rrkjus_psl.1.0.0.UPF: wavefunction(s)  3P 3D renormalized

     --------------------------------------------
     Parameters for DFT-D3 Dispersion Correction:
     --------------------------------------------
       Reference C6 values for interpolation: 

         atom   Coordination number   C6
         H1         0.912             6.05
         H1         0.000            15.18
         H2         0.912             6.05
         H2         0.000            15.18
         C          0.000            98.23
         C          0.987            86.49
         C          1.998            58.72
         C          2.999            51.56
         C          3.984            36.41
         V          0.000          2232.20
         V          1.914           580.29
         V          2.911           538.67

       Values used:

         atom   Coordination number  R0_AB[au]  C6      C8
         H1         1.138            2.062      6.10     73.74
         H2         1.024            2.062      6.16     74.47
         V          8.406            3.516    538.67  59684.75
         C          3.308            2.750     48.41   1400.23
         C          3.308            2.750     48.41   1400.04
         C          3.308            2.750     48.41   1400.12
         C          3.309            2.750     48.38   1399.27
         C          3.308            2.750     48.41   1400.12
         C          3.308            2.750     48.41   1400.04
         C          3.308            2.750     48.41   1400.23
         C          3.308            2.750     48.42   1400.26
         C          3.308            2.750     48.41   1400.23
         C          3.308            2.750     48.42   1400.26
         C          3.308            2.750     48.41   1400.23
         C          3.309            2.750     48.38   1399.27
         C          3.314            2.750     48.28   1396.30
         C          3.984            2.750     36.68   1060.91
         C          3.511            2.750     42.95   1242.07
         C          3.984            2.750     36.68   1060.90
         C          3.314            2.750     48.28   1396.30
         C          3.309            2.750     48.38   1399.26
         C          3.308            2.750     48.41   1400.23
         C          3.308            2.750     48.42   1400.26
         C          3.308            2.750     48.41   1400.23
         C          3.308            2.750     48.41   1400.04
         C          3.314            2.750     48.28   1396.30
         C          3.984            2.750     36.68   1060.91
         C          3.310            2.750     48.37   1398.95
         C          3.311            2.750     48.35   1398.50
         C          3.985            2.750     36.68   1060.89
         C          3.314            2.750     48.28   1396.29
         C          3.308            2.750     48.41   1400.03
         C          3.308            2.750     48.41   1400.11
         C          3.308            2.750     48.42   1400.26
         C          3.308            2.750     48.41   1400.12
         C          3.309            2.750     48.38   1399.27
         C          3.511            2.750     42.95   1242.07
         C          3.984            2.750     36.68   1060.90
         C          3.311            2.750     48.35   1398.50
         C          3.985            2.750     36.68   1060.89
         C          3.512            2.750     42.94   1241.93
         C          3.309            2.750     48.38   1399.26
         C          3.308            2.750     48.41   1400.11
         C          3.308            2.750     48.42   1400.26
         C          3.308            2.750     48.42   1400.28
         C          3.308            2.750     48.42   1400.26
         C          3.308            2.750     48.41   1400.12
         C          3.308            2.750     48.41   1400.04
         C          3.314            2.750     48.28   1396.30
         C          3.309            2.750     48.38   1399.26
         C          3.314            2.750     48.28   1396.29
         C          3.308            2.750     48.41   1400.03

         Molecular C6 ( Ry / a.u.^6 ) =    130679.30


     Subspace diagonalization in iterative solution of the eigenvalue problem:
     a serial algorithm will be used


     Parallelization info
     --------------------
     sticks:   dense  smooth     PW     G-vecs:    dense   smooth      PW
     Min        3051    1746    452               270999   117096   15472
     Max        3053    1747    453               271001   117099   15475
     Sum       18313   10477   2713              1626001   702581   92835



     bravais-lattice index     =            4
     lattice parameter (alat)  =      23.2937  a.u.
     unit-cell volume          =    8879.8548 (a.u.)^3
     number of atoms/cell      =           52
     number of atomic types    =            4
     number of electrons       =       211.00
     number of Kohn-Sham states=          127
     kinetic-energy cutoff     =      70.0000  Ry
     charge density cutoff     =     490.0000  Ry
     convergence threshold     =      1.0E-06
     mixing beta               =       0.3000
     number of iterations used =            8  plain     mixing
     Exchange-correlation      = PBE ( 1  4  3  4 0 0)
     nstep                     =           50


     celldm(1)=  23.293684  celldm(2)=   0.000000  celldm(3)=   0.811261
     celldm(4)=   0.000000  celldm(5)=   0.000000  celldm(6)=   0.000000

     crystal axes: (cart. coord. in units of alat)
               a(1) = (   1.000000   0.000000   0.000000 )  
               a(2) = (  -0.500000   0.866025   0.000000 )  
               a(3) = (   0.000000   0.000000   0.811261 )  

     reciprocal axes: (cart. coord. in units 2 pi/alat)
               b(1) = (  1.000000  0.577350 -0.000000 )  
               b(2) = (  0.000000  1.154701  0.000000 )  
               b(3) = (  0.000000 -0.000000  1.232649 )  


     PseudoPot. # 1 for H  read from file:
     /home/cristian/Escritorio/Proyecto_Grafeno/pseudopotenciales/H.pbe-rrkjus.UPF
     MD5 check sum: 7cc9d459525c9a0585f487a71c3c9563
     Pseudo is Ultrasoft, Zval =  1.0
     Generated by new atomic code, or converted to UPF format
     Using radial grid of 1061 points,  2 beta functions with: 
                l(1) =   0
                l(2) =   0
     Q(r) pseudized with 0 coefficients 


     PseudoPot. # 2 for H  read from file:
     /home/cristian/Escritorio/Proyecto_Grafeno/pseudopotenciales/H.pbe-rrkjus.UPF
     MD5 check sum: 7cc9d459525c9a0585f487a71c3c9563
     Pseudo is Ultrasoft, Zval =  1.0
     Generated by new atomic code, or converted to UPF format
     Using radial grid of 1061 points,  2 beta functions with: 
                l(1) =   0
                l(2) =   0
     Q(r) pseudized with 0 coefficients 


     PseudoPot. # 3 for V  read from file:
     /home/cristian/Escritorio/Proyecto_Grafeno/pseudopotenciales/V.pbe-spnl-rrkjus_psl.1.0.0.UPF
     MD5 check sum: 79b3eb63147daf0b665d9f1bcc691206
     Pseudo is Ultrasoft + core correction, Zval = 13.0
     Generated using "atomic" code by A. Dal Corso v.6.2.2
     Using radial grid of 1181 points,  6 beta functions with: 
                l(1) =   0
                l(2) =   0
                l(3) =   1
                l(4) =   1
                l(5) =   2
                l(6) =   2
     Q(r) pseudized with 0 coefficients 


     PseudoPot. # 4 for C  read from file:
     /home/cristian/Escritorio/Proyecto_Grafeno/pseudopotenciales/C.pbe-n-rrkjus_psl.1.0.0.UPF
     MD5 check sum: 1fdd950c42eb37d8afe3dd2f8d12311e
     Pseudo is Ultrasoft + core correction, Zval =  4.0
     Generated using "atomic" code by A. Dal Corso v.6.3MaX
     Using radial grid of 1073 points,  4 beta functions with: 
                l(1) =   0
                l(2) =   0
                l(3) =   1
                l(4) =   1
     Q(r) pseudized with 0 coefficients 


     atomic species   valence    mass     pseudopotential
        H1             1.00     1.00794     H ( 1.00)
        H2             1.00     1.00794     H ( 1.00)
        V             13.00    50.94150     V ( 1.00)
        C              4.00    12.01070     C ( 1.00)

     No symmetry found



   Cartesian axes

     site n.     atom                  positions (alat units)
         1           H1  tau(   1) = (   0.2000000   0.4617962   0.1784775  )
         2           H2  tau(   2) = (   0.2000000   0.5228088   0.1784775  )
         3           V   tau(   3) = (   0.2000000   0.4618802   0.0000000  )
         4           C   tau(   4) = (   0.0000000   0.0000000   0.0000000  )
         5           C   tau(   5) = (   0.0000000   0.1154701   0.0000000  )
         6           C   tau(   6) = (  -0.1000000   0.1732051   0.0000000  )
         7           C   tau(   7) = (  -0.1000000   0.2886751   0.0000000  )
         8           C   tau(   8) = (  -0.2000000   0.3464102   0.0000000  )
         9           C   tau(   9) = (  -0.2000000   0.4618802   0.0000000  )
        10           C   tau(  10) = (  -0.3000000   0.5196152   0.0000000  )
        11           C   tau(  11) = (  -0.3000000   0.6350853   0.0000000  )
        12           C   tau(  12) = (  -0.4000000   0.6928203   0.0000000  )
        13           C   tau(  13) = (  -0.4000000   0.8082904   0.0000000  )
        14           C   tau(  14) = (   0.2000000   0.0000000   0.0000000  )
        15           C   tau(  15) = (   0.2000000   0.1154701   0.0000000  )
        16           C   tau(  16) = (   0.1000000   0.1732051   0.0000000  )
        17           C   tau(  17) = (   0.1000000   0.2886751   0.0000000  )
        18           C   tau(  18) = (   0.0000000   0.3464102   0.0000000  )
        19           C   tau(  19) = (   0.0000000   0.4618802   0.0000000  )
        20           C   tau(  20) = (  -0.1000000   0.5196152   0.0000000  )
        21           C   tau(  21) = (  -0.1000000   0.6350853   0.0000000  )
        22           C   tau(  22) = (  -0.2000000   0.6928203   0.0000000  )
        23           C   tau(  23) = (  -0.2000000   0.8082904   0.0000000  )
        24           C   tau(  24) = (   0.4000000   0.0000000   0.0000000  )
        25           C   tau(  25) = (   0.4000000   0.1154701   0.0000000  )
        26           C   tau(  26) = (   0.3000000   0.1732051   0.0000000  )
        27           C   tau(  27) = (   0.3000000   0.2886751   0.0000000  )
        28           C   tau(  28) = (   0.2000000   0.3464102   0.0000000  )
        29           C   tau(  29) = (   0.1000000   0.5196152   0.0000000  )
        30           C   tau(  30) = (   0.1000000   0.6350853   0.0000000  )
        31           C   tau(  31) = (   0.0000000   0.6928203   0.0000000  )
        32           C   tau(  32) = (   0.0000000   0.8082904   0.0000000  )
        33           C   tau(  33) = (   0.6000000   0.0000000   0.0000000  )
        34           C   tau(  34) = (   0.6000000   0.1154701   0.0000000  )
        35           C   tau(  35) = (   0.5000000   0.1732051   0.0000000  )
        36           C   tau(  36) = (   0.5000000   0.2886751   0.0000000  )
        37           C   tau(  37) = (   0.4000000   0.3464102   0.0000000  )
        38           C   tau(  38) = (   0.4000000   0.4618802   0.0000000  )
        39           C   tau(  39) = (   0.3000000   0.5196152   0.0000000  )
        40           C   tau(  40) = (   0.3000000   0.6350853   0.0000000  )
        41           C   tau(  41) = (   0.2000000   0.6928203   0.0000000  )
        42           C   tau(  42) = (   0.2000000   0.8082904   0.0000000  )
        43           C   tau(  43) = (   0.8000000   0.0000000   0.0000000  )
        44           C   tau(  44) = (   0.8000000   0.1154701   0.0000000  )
        45           C   tau(  45) = (   0.7000000   0.1732051   0.0000000  )
        46           C   tau(  46) = (   0.7000000   0.2886751   0.0000000  )
        47           C   tau(  47) = (   0.6000000   0.3464102   0.0000000  )
        48           C   tau(  48) = (   0.6000000   0.4618802   0.0000000  )
        49           C   tau(  49) = (   0.5000000   0.5196152   0.0000000  )
        50           C   tau(  50) = (   0.5000000   0.6350853   0.0000000  )
        51           C   tau(  51) = (   0.4000000   0.6928203   0.0000000  )
        52           C   tau(  52) = (   0.4000000   0.8082904   0.0000000  )

     number of k points=     4  Marzari-Vanderbilt smearing, width (Ry)=  0.0010
                       cart. coord. in units 2pi/alat
        k(    1) = (   0.0000000   0.0000000   0.0000000), wk =   0.5000000
        k(    2) = (   0.0000000  -0.5773503   0.0000000), wk =   0.5000000
        k(    3) = (   0.5000000  -0.2886751   0.0000000), wk =   0.5000000
        k(    4) = (  -0.5000000  -0.2886751   0.0000000), wk =   0.5000000

     Dense  grid:  1626001 G-vectors     FFT dimensions: ( 180, 180, 135)

     Smooth grid:   702581 G-vectors     FFT dimensions: ( 125, 125, 108)

     Estimated max dynamical RAM per process >       1.81 GB

     Estimated total dynamical RAM >      10.88 GB

     Check: negative core charge=   -0.000002

     Initial potential from superposition of free atoms

     starting charge  210.80465, renormalised to  211.00000

     negative rho (up, down):  1.364E-04 0.000E+00
     Starting wfcs are  208 randomized atomic wfcs

     total cpu time spent up to now is      108.7 secs

     Self-consistent Calculation

     iteration #  1     ecut=    70.00 Ry     beta= 0.30
     Davidson diagonalization with overlap
     ethr =  1.00E-02,  avg # of iterations =  3.0

     negative rho (up, down):  1.693E-04 0.000E+00

     total cpu time spent up to now is      318.5 secs

     total energy              =    -752.87681123 Ry
     Harris-Foulkes estimate   =    -758.96840782 Ry
     estimated scf accuracy    <      14.21304554 Ry

     iteration #  2     ecut=    70.00 Ry     beta= 0.30
     Davidson diagonalization with overlap
     ethr =  6.74E-03,  avg # of iterations =  6.2

     negative rho (up, down):  3.186E-04 0.000E+00

     total cpu time spent up to now is      468.4 secs

     total energy              =    -751.85383401 Ry
     Harris-Foulkes estimate   =    -759.53554498 Ry
     estimated scf accuracy    <      41.40511777 Ry

     iteration #  3     ecut=    70.00 Ry     beta= 0.30
     Davidson diagonalization with overlap
     ethr =  6.74E-03,  avg # of iterations =  4.0

     negative rho (up, down):  9.249E-04 0.000E+00

     total cpu time spent up to now is      609.4 secs

     total energy              =    -755.46636065 Ry
     Harris-Foulkes estimate   =    -756.29961016 Ry
     estimated scf accuracy    <       2.23179513 Ry

     iteration #  4     ecut=    70.00 Ry     beta= 0.30
     Davidson diagonalization with overlap
     ethr =  1.06E-03,  avg # of iterations =  4.2

     negative rho (up, down):  1.237E-02 0.000E+00

     total cpu time spent up to now is      772.7 secs

     total energy              =    -755.49499495 Ry
     Harris-Foulkes estimate   =    -755.83806680 Ry
     estimated scf accuracy    <       1.30751161 Ry

     iteration #  5     ecut=    70.00 Ry     beta= 0.30
     Davidson diagonalization with overlap
     ethr =  6.20E-04,  avg # of iterations =  7.0

     negative rho (up, down):  6.736E-03 0.000E+00

     total cpu time spent up to now is      916.7 secs

     total energy              =    -755.56696195 Ry
     Harris-Foulkes estimate   =    -755.60477962 Ry
     estimated scf accuracy    <       0.24207923 Ry

     iteration #  6     ecut=    70.00 Ry     beta= 0.30
     Davidson diagonalization with overlap
     ethr =  1.15E-04,  avg # of iterations =  7.0

     negative rho (up, down):  9.041E-03 0.000E+00

     total cpu time spent up to now is     1064.3 secs

     total energy              =    -755.58152165 Ry
     Harris-Foulkes estimate   =    -755.59434774 Ry
     estimated scf accuracy    <       0.08746408 Ry

     iteration #  7     ecut=    70.00 Ry     beta= 0.30
     Davidson diagonalization with overlap
     ethr =  4.15E-05,  avg # of iterations =  5.2

     negative rho (up, down):  2.778E-02 0.000E+00

     total cpu time spent up to now is     1204.8 secs

     total energy              =    -755.58994072 Ry
     Harris-Foulkes estimate   =    -755.59132543 Ry
     estimated scf accuracy    <       0.01420750 Ry

     iteration #  8     ecut=    70.00 Ry     beta= 0.30
     Davidson diagonalization with overlap
     ethr =  6.73E-06,  avg # of iterations =  8.8

     negative rho (up, down):  3.429E-02 0.000E+00

     total cpu time spent up to now is     1373.1 secs

     total energy              =    -755.59297068 Ry
     Harris-Foulkes estimate   =    -755.59222434 Ry
     estimated scf accuracy    <       0.00459407 Ry

     iteration #  9     ecut=    70.00 Ry     beta= 0.30
     Davidson diagonalization with overlap
     ethr =  2.18E-06,  avg # of iterations =  3.0

     negative rho (up, down):  3.726E-02 0.000E+00

     total cpu time spent up to now is     1508.8 secs

     total energy              =    -755.59380553 Ry
     Harris-Foulkes estimate   =    -755.59330393 Ry
     estimated scf accuracy    <       0.00172046 Ry

     iteration # 10     ecut=    70.00 Ry     beta= 0.30
     Davidson diagonalization with overlap
     ethr =  8.15E-07,  avg # of iterations =  3.0

     negative rho (up, down):  3.579E-02 0.000E+00

     total cpu time spent up to now is     1646.3 secs

     total energy              =    -755.59461924 Ry
     Harris-Foulkes estimate   =    -755.59399005 Ry
     estimated scf accuracy    <       0.00032420 Ry

     iteration # 11     ecut=    70.00 Ry     beta= 0.30
     Davidson diagonalization with overlap
     ethr =  1.54E-07,  avg # of iterations =  4.8

     negative rho (up, down):  3.575E-02 0.000E+00

     total cpu time spent up to now is     1796.8 secs

     total energy              =    -755.59500188 Ry
     Harris-Foulkes estimate   =    -755.59466573 Ry
     estimated scf accuracy    <       0.00010147 Ry

     iteration # 12     ecut=    70.00 Ry     beta= 0.30
     Davidson diagonalization with overlap
     ethr =  4.81E-08,  avg # of iterations =  4.0

     negative rho (up, down):  3.322E-02 0.000E+00

     total cpu time spent up to now is     1951.6 secs

     total energy              =    -755.59547323 Ry
     Harris-Foulkes estimate   =    -755.59503614 Ry
     estimated scf accuracy    <       0.00002768 Ry

     iteration # 13     ecut=    70.00 Ry     beta= 0.30
     Davidson diagonalization with overlap
     ethr =  1.31E-08,  avg # of iterations =  4.2

     negative rho (up, down):  3.212E-02 0.000E+00

     total cpu time spent up to now is     2107.2 secs

     total energy              =    -755.59570604 Ry
     Harris-Foulkes estimate   =    -755.59548292 Ry
     estimated scf accuracy    <       0.00001345 Ry

     iteration # 14     ecut=    70.00 Ry     beta= 0.30
     Davidson diagonalization with overlap
     ethr =  6.38E-09,  avg # of iterations =  4.0

     negative rho (up, down):  3.169E-02 0.000E+00

     total cpu time spent up to now is     2259.5 secs

     total energy              =    -755.59583610 Ry
     Harris-Foulkes estimate   =    -755.59571275 Ry
     estimated scf accuracy    <       0.00000929 Ry

     iteration # 15     ecut=    70.00 Ry     beta= 0.30
     Davidson diagonalization with overlap
     ethr =  4.40E-09,  avg # of iterations =  3.8

     negative rho (up, down):  3.151E-02 0.000E+00

     total cpu time spent up to now is     2408.5 secs

     total energy              =    -755.59591166 Ry
     Harris-Foulkes estimate   =    -755.59584003 Ry
     estimated scf accuracy    <       0.00000207 Ry

     iteration # 16     ecut=    70.00 Ry     beta= 0.30
     Davidson diagonalization with overlap
     ethr =  9.81E-10,  avg # of iterations =  4.0

     negative rho (up, down):  2.862E-02 0.000E+00

     total cpu time spent up to now is     2575.6 secs

     End of self-consistent calculation

          k = 0.0000 0.0000 0.0000 ( 87777 PWs)   bands (ev):

   -62.5514 -37.7224 -37.7223 -36.3039 -19.6371 -18.7792 -18.7726 -18.7433
   -18.7182 -18.7095 -18.2480 -16.9462 -16.9454 -16.9429 -16.7941 -16.7936
   -16.5282 -16.0745 -16.0739 -16.0159 -15.8420 -15.8384 -15.0836 -13.8787
   -13.8595 -13.8584 -13.8218 -13.8193 -13.1930 -12.9321 -12.9317 -12.9139
   -12.5306 -12.5279 -12.0835 -11.6421 -11.6418 -11.5302 -11.1409 -11.1390
   -10.1417  -9.3409  -9.3385  -9.2202  -9.1442  -9.1440  -9.0844  -9.0709
    -9.0708  -9.0578  -8.4819  -8.4663  -8.4003  -7.9127  -7.9125  -7.8317
    -7.7021  -7.6717  -7.2410  -7.2390  -6.9011  -6.8977  -6.8563  -6.6939
    -6.6931  -6.6719  -6.5818  -6.5804  -6.4981  -6.4019  -6.3987  -6.3866
    -6.3739  -6.3724  -6.3267  -6.1505  -5.2436  -5.2422  -5.1008  -5.0970
    -4.9134  -4.9112  -4.7811  -4.7371  -4.5952  -4.5877  -4.5838  -4.1980
    -3.9748  -3.9728  -3.7052  -3.7025  -3.6599  -3.4631  -3.4625  -3.3826
    -2.8206  -2.2219  -2.2194  -2.1189  -2.1163  -1.7179  -1.6875  -1.6846
    -0.5096  -0.0842  -0.0796   1.0780   1.0845   1.0955   1.7135   1.9902
     2.0985   2.0992   2.7932   2.9428   2.9564   2.9876   3.4192   3.7750
     3.8103   4.0410   4.0448   4.0465   4.0482   4.0815   4.1376

          k = 0.0000-0.5774 0.0000 ( 87818 PWs)   bands (ev):

   -62.5514 -37.7224 -37.7223 -36.3039 -19.4620 -19.3443 -18.9774 -18.8334
   -18.0853 -18.0210 -18.0017 -17.8248 -17.5270 -17.3504 -16.7058 -16.6813
   -16.5313 -16.2747 -15.4006 -15.3533 -15.2282 -15.1808 -15.0225 -14.8369
   -14.8292 -14.5630 -14.0575 -13.6440 -13.4467 -13.0123 -12.5962 -12.4982
   -12.3267 -12.3136 -11.8743 -11.5362 -11.1897 -11.1204 -10.8944 -10.5903
   -10.5025 -10.2639 -10.2513  -9.8755  -9.8388  -9.3124  -9.1154  -8.7821
    -8.7533  -8.6507  -8.4203  -8.3254  -8.0511  -7.8926  -7.6745  -7.5611
    -7.5314  -7.4059  -7.3723  -7.3542  -7.1015  -7.0836  -7.0726  -6.9710
    -6.9057  -6.7913  -6.7809  -6.3479  -6.3144  -6.2438  -6.1657  -6.0708
    -5.9475  -5.8955  -5.8521  -5.8069  -5.7447  -5.6373  -5.6256  -5.4964
    -5.1412  -5.1285  -4.8794  -4.8705  -4.4586  -4.3736  -4.3391  -4.3172
    -4.1300  -4.0278  -3.8018  -3.5977  -3.2777  -3.1931  -2.9132  -2.8309
    -2.8264  -2.7205  -2.6987  -2.5997  -2.1020  -2.0104  -1.7387  -1.5142
    -0.6574  -0.0076   0.0895   1.0971   1.1610   1.7133   1.8068   1.8755
     2.0245   2.3414   2.3784   2.4982   2.9501   3.1222   3.2645   3.3350
     3.5736   3.7376   3.9079   3.9992   4.1291   4.5821   4.7290

          k = 0.5000-0.2887 0.0000 ( 87818 PWs)   bands (ev):

   -62.5514 -37.7224 -37.7223 -36.3039 -19.4584 -19.3501 -18.9777 -18.8291
   -18.0854 -18.0235 -18.0006 -17.8259 -17.5256 -17.3552 -16.7029 -16.6772
   -16.5347 -16.2697 -15.4007 -15.3553 -15.2298 -15.1842 -15.0209 -14.8404
   -14.8276 -14.5636 -14.0576 -13.6410 -13.4443 -13.0141 -12.5957 -12.4968
   -12.3291 -12.3113 -11.8747 -11.5346 -11.1901 -11.1212 -10.8957 -10.5926
   -10.5022 -10.2640 -10.2521  -9.8769  -9.8361  -9.3107  -9.1215  -8.7802
    -8.7499  -8.6514  -8.4228  -8.3177  -8.0546  -7.8913  -7.6735  -7.5654
    -7.5301  -7.4064  -7.3724  -7.3553  -7.1016  -7.0798  -7.0708  -6.9738
    -6.9050  -6.7924  -6.7768  -6.3464  -6.3176  -6.2439  -6.1718  -6.0689
    -5.9467  -5.8964  -5.8524  -5.8078  -5.7454  -5.6341  -5.6242  -5.5027
    -5.1399  -5.1297  -4.8788  -4.8696  -4.4567  -4.3696  -4.3389  -4.3199
    -4.1319  -4.0110  -3.8003  -3.6118  -3.2802  -3.1934  -2.9116  -2.8337
    -2.8261  -2.7226  -2.6990  -2.6001  -2.1047  -2.0079  -1.7325  -1.5209
    -0.6489  -0.0042   0.0845   1.0835   1.1718   1.6988   1.8440   1.8770
     2.0109   2.3282   2.3714   2.5009   3.0101   3.0873   3.2659   3.3344
     3.4184   3.7603   3.9978   4.0750   4.2074   4.5606   4.6274

          k =-0.5000-0.2887 0.0000 ( 87818 PWs)   bands (ev):

   -62.5514 -37.7224 -37.7223 -36.3039 -19.4584 -19.3501 -18.9776 -18.8291
   -18.0854 -18.0235 -18.0006 -17.8259 -17.5256 -17.3552 -16.7029 -16.6772
   -16.5347 -16.2697 -15.4007 -15.3553 -15.2298 -15.1841 -15.0209 -14.8404
   -14.8276 -14.5636 -14.0576 -13.6410 -13.4443 -13.0142 -12.5957 -12.4968
   -12.3291 -12.3113 -11.8747 -11.5346 -11.1901 -11.1212 -10.8957 -10.5926
   -10.5022 -10.2640 -10.2521  -9.8769  -9.8361  -9.3107  -9.1215  -8.7802
    -8.7499  -8.6514  -8.4228  -8.3177  -8.0546  -7.8913  -7.6735  -7.5654
    -7.5301  -7.4064  -7.3724  -7.3553  -7.1016  -7.0798  -7.0708  -6.9738
    -6.9050  -6.7924  -6.7768  -6.3464  -6.3176  -6.2439  -6.1718  -6.0689
    -5.9467  -5.8964  -5.8524  -5.8078  -5.7454  -5.6341  -5.6242  -5.5027
    -5.1399  -5.1297  -4.8788  -4.8696  -4.4567  -4.3696  -4.3390  -4.3199
    -4.1319  -4.0110  -3.8003  -3.6118  -3.2802  -3.1934  -2.9116  -2.8337
    -2.8262  -2.7226  -2.6990  -2.6001  -2.1047  -2.0079  -1.7325  -1.5209
    -0.6490  -0.0042   0.0845   1.0835   1.1718   1.6988   1.8440   1.8770
     2.0109   2.3282   2.3714   2.5009   3.0101   3.0873   3.2659   3.3344
     3.4184   3.7603   3.9977   4.0750   4.2074   4.5605   4.6275

     the Fermi energy is    -0.0689 ev

!    total energy              =    -755.59609843 Ry
     Harris-Foulkes estimate   =    -755.59591402 Ry
     estimated scf accuracy    <       0.00000044 Ry

     The total energy is the sum of the following terms:

     one-electron contribution =   -2606.67677822 Ry
     hartree contribution      =    1350.52535152 Ry
     xc contribution           =    -250.59117324 Ry
     ewald contribution        =     751.28674136 Ry
     DFT-D3 Dispersion         =      -0.14032614 Ry
     smearing contrib. (-TS)   =       0.00008629 Ry

     convergence has been achieved in  16 iterations

     negative rho (up, down):  2.862E-02 0.000E+00

     Forces acting on atoms (cartesian axes, Ry/au):

     atom    1 type  1   force =     0.00000031   -0.01947312    0.00666808
     atom    2 type  2   force =     0.00000053    0.00870836   -0.00396921
     atom    3 type  3   force =     0.00002116    0.01020097    0.05406423
     atom    4 type  4   force =     0.00231884   -0.00135370    0.00002441
     atom    5 type  4   force =    -0.01153094   -0.00075321   -0.00006716
     atom    6 type  4   force =     0.00183682   -0.00745554   -0.00005195
     atom    7 type  4   force =     0.01411489    0.00809507    0.00012381
     atom    8 type  4   force =    -0.00574081    0.00508681   -0.00005801
     atom    9 type  4   force =    -0.00613093   -0.00947593   -0.00020813
     atom   10 type  4   force =     0.00000006    0.00344813    0.00000010
     atom   11 type  4   force =     0.00000168   -0.00694661    0.00002695
     atom   12 type  4   force =    -0.00776497   -0.00431991    0.00001412
     atom   13 type  4   force =    -0.00586482    0.00266121    0.00000137
     atom   14 type  4   force =     0.00000204    0.01011316    0.00000891
     atom   15 type  4   force =    -0.00000109   -0.01329832    0.00021316
     atom   16 type  4   force =    -0.00658000    0.01782009   -0.00010545
     atom   17 type  4   force =    -0.03246998   -0.04166824   -0.00037358
     atom   18 type  4   force =    -0.03277335   -0.02036553    0.00210089
     atom   19 type  4   force =    -0.04740181   -0.00517457    0.00094316
     atom   20 type  4   force =     0.01098801   -0.01379731    0.00014626
     atom   21 type  4   force =    -0.01066515    0.00589167    0.00025907
     atom   22 type  4   force =     0.00775869   -0.00431793    0.00001412
     atom   23 type  4   force =     0.00586566    0.00265964    0.00000142
     atom   24 type  4   force =    -0.00232159   -0.00135601    0.00002428
     atom   25 type  4   force =     0.01153065   -0.00075229   -0.00006740
     atom   26 type  4   force =     0.00657851    0.01782302   -0.00010595
     atom   27 type  4   force =     0.03246903   -0.04166860   -0.00037375
     atom   28 type  4   force =     0.00000039   -0.88572604   -0.00956747
     atom   29 type  4   force =    -0.77161572    0.44567302   -0.02784404
     atom   30 type  4   force =    -0.02052894    0.04412592   -0.00041112
     atom   31 type  4   force =     0.01752629   -0.00224905    0.00002260
     atom   32 type  4   force =     0.00471451    0.00981743   -0.00014516
     atom   33 type  4   force =    -0.00672852    0.00248823   -0.00013876
     atom   34 type  4   force =     0.00264926    0.00122272    0.00001555
     atom   35 type  4   force =    -0.00183822   -0.00745630   -0.00005198
     atom   36 type  4   force =    -0.01411356    0.00809430    0.00012376
     atom   37 type  4   force =     0.03277119   -0.02036335    0.00210107
     atom   38 type  4   force =     0.04740457   -0.00517648    0.00094281
     atom   39 type  4   force =     0.77160560    0.44567124   -0.02784375
     atom   40 type  4   force =     0.02052984    0.04412855   -0.00041165
     atom   41 type  4   force =     0.00000173    0.03832769    0.00368343
     atom   42 type  4   force =     0.00000096   -0.01511957    0.00028785
     atom   43 type  4   force =     0.00672619    0.00248698   -0.00013882
     atom   44 type  4   force =    -0.00264735    0.00122385    0.00001559
     atom   45 type  4   force =    -0.00000012    0.00003618    0.00005783
     atom   46 type  4   force =     0.00000049   -0.00280290    0.00003260
     atom   47 type  4   force =     0.00574152    0.00508507   -0.00005800
     atom   48 type  4   force =     0.00613054   -0.00947764   -0.00020821
     atom   49 type  4   force =    -0.01099178   -0.01379650    0.00014577
     atom   50 type  4   force =     0.01066547    0.00589267    0.00025906
     atom   51 type  4   force =    -0.01752881   -0.00225342    0.00002257
     atom   52 type  4   force =    -0.00471700    0.00981608   -0.00014528

     Total force =     1.546796     Total SCF correction =     0.000946

     BFGS Geometry Optimization

     number of scf cycles    =   1
     number of bfgs steps    =   0

     energy   new            =    -755.5960984288 Ry

     new trust radius        =       0.5000000000 bohr
     new conv_thr            =       0.0000010000 Ry


ATOMIC_POSITIONS (angstrom)
H1       2.465297442   5.686545949   2.201979000
H2       2.465297509   6.446979919   2.198821992
V        2.465303629   5.696387869   0.016045556
C        0.000000000   0.000000000   0.000000000    0   0   0
C        0.000000000   1.423340089   0.000000000    0   0   0
C       -1.232648675   2.135010133   0.000000000    0   0   0
C       -1.232648675   3.558350222   0.000000000    0   0   0
C       -2.465297350   4.270020266   0.000000000    0   0   0
C       -2.465297350   5.693360355   0.000000000    0   0   0
C       -3.697946025   6.405030399   0.000000000    0   0   0
C       -3.697946025   7.828370488   0.000000000    0   0   0
C       -4.930594700   8.540040532   0.000000000    0   0   0
C       -4.930594700   9.963380621   0.000000000    0   0   0
C        2.465297350   0.000000000   0.000000000    0   0   0
C        2.465297350   1.423340089   0.000000000    0   0   0
C        1.232648675   2.135010133   0.000000000    0   0   0
C        1.223012010   3.545983633  -0.000110874
C        0.000000000   4.270020266   0.000000000    0   0   0
C       -0.014068237   5.691824611   0.000279918
C       -1.232648675   6.405030399   0.000000000    0   0   0
C       -1.232648675   7.828370488   0.000000000    0   0   0
C       -2.465297350   8.540040532   0.000000000    0   0   0
C       -2.465297350   9.963380621   0.000000000    0   0   0
C        4.930594700   0.000000000   0.000000000    0   0   0
C        4.930594700   1.423340089   0.000000000    0   0   0
C        3.697946025   2.135010133   0.000000000    0   0   0
C        3.707582409   3.545983527  -0.000110924
C        2.465297467   4.007148345  -0.002839501
C        1.003643206   6.537300332  -0.008263749
C        1.226555953   7.841466485  -0.000122016
C        0.000000000   8.540040532   0.000000000    0   0   0
C        0.000000000   9.963380621   0.000000000    0   0   0
C        7.395892050   0.000000000   0.000000000    0   0   0
C        7.395892050   1.423340089   0.000000000    0   0   0
C        6.163243375   2.135010133   0.000000000    0   0   0
C        6.163243375   3.558350222   0.000000000    0   0   0
C        4.930594700   4.270020266   0.000000000    0   0   0
C        4.944663757   5.691824044   0.000279813
C        3.926948490   6.537299802  -0.008263662
C        3.704039014   7.841467267  -0.000122172
C        2.465297350   8.540040532   0.000000000    0   0   0
C        2.465297350   9.963380621   0.000000000    0   0   0
C        9.861189400   0.000000000   0.000000000    0   0   0
C        9.861189400   1.423340089   0.000000000    0   0   0
C        8.628540725   2.135010133   0.000000000    0   0   0
C        8.628540725   3.558350222   0.000000000    0   0   0
C        7.395892050   4.270020266   0.000000000    0   0   0
C        7.395892050   5.693360355   0.000000000    0   0   0
C        6.163243375   6.405030399   0.000000000    0   0   0
C        6.163243375   7.828370488   0.000000000    0   0   0
C        4.930594700   8.540040532   0.000000000    0   0   0
C        4.930594700   9.963380621   0.000000000    0   0   0



     Writing output data file gr-12.save/
     NEW-OLD atomic charge density approx. for the potential

     Check: negative core charge=   -0.000002

     negative rho (up, down):  2.891E-02 0.000E+00

     total cpu time spent up to now is     2670.5 secs

     Self-consistent Calculation

     iteration #  1     ecut=    70.00 Ry     beta= 0.30
     Davidson diagonalization with overlap
     ethr =  1.00E-06,  avg # of iterations = 17.5

     negative rho (up, down):  2.124E-02 0.000E+00

     total cpu time spent up to now is     3127.8 secs

     total energy              =    -755.43779677 Ry
     Harris-Foulkes estimate   =    -756.54739154 Ry
     estimated scf accuracy    <       2.34878056 Ry

     iteration #  2     ecut=    70.00 Ry     beta= 0.30
     Davidson diagonalization with overlap
     ethr =  1.11E-03,  avg # of iterations =  4.0

     negative rho (up, down):  4.284E-02 0.000E+00

     total cpu time spent up to now is     3322.3 secs

     total energy              =    -754.74972104 Ry
     Harris-Foulkes estimate   =    -757.09990370 Ry
     estimated scf accuracy    <      15.95303559 Ry

     iteration #  3     ecut=    70.00 Ry     beta= 0.30
     Davidson diagonalization with overlap
     ethr =  1.11E-03,  avg # of iterations =  3.8

     negative rho (up, down):  2.760E-02 0.000E+00

     total cpu time spent up to now is     3467.6 secs

     total energy              =    -756.16941996 Ry
     Harris-Foulkes estimate   =    -756.24356544 Ry
     estimated scf accuracy    <       0.54516170 Ry

     iteration #  4     ecut=    70.00 Ry     beta= 0.30
     Davidson diagonalization with overlap
     ethr =  2.58E-04,  avg # of iterations =  2.2

     negative rho (up, down):  1.621E-02 0.000E+00

     total cpu time spent up to now is     3602.2 secs

     total energy              =    -756.18293500 Ry
     Harris-Foulkes estimate   =    -756.19561144 Ry
     estimated scf accuracy    <       0.08113738 Ry

     iteration #  5     ecut=    70.00 Ry     beta= 0.30
     Davidson diagonalization with overlap
     ethr =  3.85E-05,  avg # of iterations =  4.2

     negative rho (up, down):  1.263E-02 0.000E+00

     total cpu time spent up to now is     3751.9 secs

     total energy              =    -756.19067919 Ry
     Harris-Foulkes estimate   =    -756.19066887 Ry
     estimated scf accuracy    <       0.00331952 Ry

     iteration #  6     ecut=    70.00 Ry     beta= 0.30
     Davidson diagonalization with overlap
     ethr =  1.57E-06,  avg # of iterations = 11.5

     negative rho (up, down):  1.134E-02 0.000E+00

     total cpu time spent up to now is     3913.8 secs

     total energy              =    -756.19133576 Ry
     Harris-Foulkes estimate   =    -756.19112514 Ry
     estimated scf accuracy    <       0.00119512 Ry

     iteration #  7     ecut=    70.00 Ry     beta= 0.30
     Davidson diagonalization with overlap
     ethr =  5.66E-07,  avg # of iterations =  3.0

     negative rho (up, down):  1.240E-02 0.000E+00

     total cpu time spent up to now is     4048.6 secs

     total energy              =    -756.19136747 Ry
     Harris-Foulkes estimate   =    -756.19139402 Ry
     estimated scf accuracy    <       0.00033725 Ry

     iteration #  8     ecut=    70.00 Ry     beta= 0.30
     Davidson diagonalization with overlap
     ethr =  1.60E-07,  avg # of iterations =  3.0

     negative rho (up, down):  1.181E-02 0.000E+00

     total cpu time spent up to now is     4183.3 secs

     total energy              =    -756.19141105 Ry
     Harris-Foulkes estimate   =    -756.19138416 Ry
     estimated scf accuracy    <       0.00006939 Ry

     iteration #  9     ecut=    70.00 Ry     beta= 0.30
     Davidson diagonalization with overlap
     ethr =  3.29E-08,  avg # of iterations =  3.0

     negative rho (up, down):  1.095E-02 0.000E+00

     total cpu time spent up to now is     4319.6 secs

     total energy              =    -756.19146143 Ry
     Harris-Foulkes estimate   =    -756.19141926 Ry
     estimated scf accuracy    <       0.00000718 Ry

     iteration # 10     ecut=    70.00 Ry     beta= 0.30
     Davidson diagonalization with overlap
     ethr =  3.41E-09,  avg # of iterations =  4.0

     negative rho (up, down):  1.028E-02 0.000E+00

     total cpu time spent up to now is     4467.9 secs

     total energy              =    -756.19149005 Ry
     Harris-Foulkes estimate   =    -756.19146268 Ry
     estimated scf accuracy    <       0.00000152 Ry

     iteration # 11     ecut=    70.00 Ry     beta= 0.30
     Davidson diagonalization with overlap
     ethr =  7.21E-10,  avg # of iterations =  3.2

     negative rho (up, down):  9.188E-03 0.000E+00

     total cpu time spent up to now is     4615.6 secs

     End of self-consistent calculation

          k = 0.0000 0.0000 0.0000 ( 87777 PWs)   bands (ev):

   -63.7723 -37.9719 -37.8961 -37.8906 -19.6837 -18.9564 -18.9559 -18.7097
   -18.7071 -18.6672 -18.4879 -17.1152 -17.1132 -16.9769 -16.8573 -16.8527
   -16.4641 -16.1867 -16.1866 -16.0886 -15.8969 -15.8957 -15.0729 -14.2095
   -13.8936 -13.8919 -13.8464 -13.8441 -13.3271 -12.9517 -12.9508 -12.9273
   -12.5826 -12.5780 -12.0082 -11.7536 -11.7515 -11.6828 -11.1195 -11.1177
   -10.0516  -9.5212  -9.4960  -9.4905  -9.1918  -9.1913  -9.0658  -9.0223
    -9.0223  -9.0174  -8.7276  -8.4865  -8.4840  -8.0432  -7.9039  -7.8380
    -7.8373  -7.7352  -7.2373  -7.2361  -7.0260  -7.0195  -6.7693  -6.7547
    -6.7510  -6.6415  -6.6397  -6.5943  -6.5663  -6.4398  -6.4385  -6.3764
    -6.3473  -6.3229  -6.3216  -6.2739  -5.3072  -5.3052  -4.9877  -4.9797
    -4.9625  -4.8398  -4.8368  -4.6467  -4.5854  -4.5851  -4.5776  -4.1276
    -3.8711  -3.8678  -3.6819  -3.6776  -3.6268  -3.5325  -3.5304  -2.7922
    -2.7191  -1.9349  -1.9346  -1.8853  -1.8734  -1.7740  -1.6337  -1.6312
    -0.4554   0.0162   0.0638   0.9152   1.0813   1.1285   1.1353   1.9002
     1.9141   2.1035   2.7961   2.9582   2.9928   2.9948   3.1366   3.5381
     3.8113   3.8163   3.8707   4.0505   4.0927   4.1116   4.1234

          k = 0.0000-0.5774 0.0000 ( 87818 PWs)   bands (ev):

   -63.7723 -37.9719 -37.8961 -37.8906 -19.4808 -19.4314 -19.0843 -18.9131
   -18.2110 -18.1664 -18.0413 -17.8045 -17.6592 -17.4677 -16.7540 -16.6791
   -16.6574 -16.3931 -15.5242 -15.4622 -15.2288 -15.2173 -15.0975 -14.9189
   -14.8890 -14.5851 -14.1509 -13.7272 -13.5207 -12.9772 -12.7096 -12.5852
   -12.4090 -12.2763 -11.9077 -11.6144 -11.2552 -11.2065 -10.9085 -10.7114
   -10.5121 -10.2767 -10.2343  -9.9592  -9.9464  -9.4008  -8.9857  -8.8943
    -8.7373  -8.7111  -8.5805  -8.5066  -8.0728  -7.9856  -7.8008  -7.7271
    -7.5546  -7.4470  -7.3271  -7.3020  -7.1553  -7.0681  -7.0476  -6.9902
    -6.9559  -6.8545  -6.7615  -6.4942  -6.4754  -6.2209  -6.1628  -6.1188
    -6.0789  -5.8822  -5.8365  -5.7550  -5.6741  -5.6394  -5.6039  -5.4448
    -5.3038  -5.2100  -4.9059  -4.7273  -4.3634  -4.3099  -4.2951  -4.2763
    -4.2211  -4.0338  -3.7260  -3.2767  -3.1592  -2.9126  -2.7880  -2.7795
    -2.6529  -2.6427  -2.5525  -2.5252  -1.9502  -1.8092  -1.6822  -1.3814
    -0.5038   0.1425   0.1461   0.9469   1.0344   1.1711   1.7860   1.9119
     2.0535   2.3948   2.4308   2.5519   2.8729   2.9821   3.0897   3.2740
     3.4558   3.4841   3.6910   3.8485   3.9354   4.1972   4.2681

          k = 0.5000-0.2887 0.0000 ( 87818 PWs)   bands (ev):

   -63.7723 -37.9719 -37.8961 -37.8907 -19.4772 -19.4355 -19.0852 -18.9112
   -18.2111 -18.1649 -18.0439 -17.8032 -17.6585 -17.4706 -16.7507 -16.6820
   -16.6576 -16.3904 -15.5264 -15.4620 -15.2278 -15.2168 -15.0980 -14.9186
   -14.8903 -14.5865 -14.1483 -13.7265 -13.5208 -12.9793 -12.7105 -12.5855
   -12.4111 -12.2744 -11.9083 -11.6093 -11.2540 -11.2093 -10.9061 -10.7103
   -10.5133 -10.2768 -10.2356  -9.9622  -9.9426  -9.4060  -8.9930  -8.8977
    -8.7415  -8.7081  -8.5704  -8.5015  -8.0694  -7.9883  -7.7998  -7.7265
    -7.5627  -7.4412  -7.3285  -7.3020  -7.1506  -7.0684  -7.0447  -6.9893
    -6.9551  -6.8513  -6.7634  -6.4966  -6.4771  -6.2299  -6.1629  -6.1220
    -6.0767  -5.8855  -5.8380  -5.7544  -5.6755  -5.6382  -5.6041  -5.4479
    -5.2989  -5.2023  -4.9063  -4.7227  -4.3634  -4.3112  -4.2934  -4.2755
    -4.2228  -4.0329  -3.7268  -3.2830  -3.1601  -2.9123  -2.7851  -2.7816
    -2.6540  -2.6445  -2.5533  -2.5247  -1.9412  -1.8180  -1.6748  -1.3857
    -0.4992   0.1136   0.1824   0.9063   1.0314   1.2086   1.7940   1.9126
     2.0506   2.3853   2.4252   2.5517   2.9447   2.9843   3.0687   3.1959
     3.2950   3.6519   3.7174   3.8494   3.9212   4.1827   4.3718

          k =-0.5000-0.2887 0.0000 ( 87818 PWs)   bands (ev):

   -63.7723 -37.9719 -37.8961 -37.8907 -19.4772 -19.4355 -19.0852 -18.9112
   -18.2111 -18.1649 -18.0439 -17.8032 -17.6585 -17.4706 -16.7507 -16.6820
   -16.6576 -16.3904 -15.5264 -15.4620 -15.2278 -15.2168 -15.0980 -14.9186
   -14.8903 -14.5865 -14.1483 -13.7265 -13.5208 -12.9793 -12.7105 -12.5855
   -12.4111 -12.2744 -11.9083 -11.6093 -11.2540 -11.2093 -10.9061 -10.7103
   -10.5133 -10.2768 -10.2356  -9.9622  -9.9426  -9.4060  -8.9930  -8.8977
    -8.7415  -8.7081  -8.5704  -8.5015  -8.0694  -7.9883  -7.7998  -7.7265
    -7.5627  -7.4412  -7.3285  -7.3020  -7.1506  -7.0684  -7.0447  -6.9893
    -6.9551  -6.8513  -6.7634  -6.4966  -6.4771  -6.2299  -6.1629  -6.1220
    -6.0767  -5.8855  -5.8380  -5.7544  -5.6755  -5.6382  -5.6041  -5.4479
    -5.2989  -5.2023  -4.9063  -4.7227  -4.3634  -4.3112  -4.2934  -4.2755
    -4.2228  -4.0330  -3.7268  -3.2830  -3.1601  -2.9123  -2.7851  -2.7816
    -2.6540  -2.6445  -2.5533  -2.5247  -1.9412  -1.8180  -1.6748  -1.3857
    -0.4992   0.1136   0.1825   0.9063   1.0314   1.2086   1.7940   1.9126
     2.0506   2.3853   2.4252   2.5517   2.9447   2.9843   3.0687   3.1959
     3.2950   3.6519   3.7174   3.8494   3.9212   4.1827   4.3718

     the Fermi energy is     0.0763 ev

!    total energy              =    -756.19151626 Ry
     Harris-Foulkes estimate   =    -756.19149042 Ry
     estimated scf accuracy    <       0.00000020 Ry

     The total energy is the sum of the following terms:

     one-electron contribution =   -2584.26213322 Ry
     hartree contribution      =    1338.76128942 Ry
     xc contribution           =    -250.32333877 Ry
     ewald contribution        =     739.77182568 Ry
     DFT-D3 Dispersion         =      -0.13920013 Ry
     smearing contrib. (-TS)   =       0.00004076 Ry

     convergence has been achieved in  11 iterations

     negative rho (up, down):  9.188E-03 0.000E+00

     Forces acting on atoms (cartesian axes, Ry/au):

     atom    1 type  1   force =     0.00000016   -0.01464748    0.00237136
     atom    2 type  2   force =     0.00000012    0.00322989   -0.00962754
     atom    3 type  3   force =    -0.00001751    0.00378382    0.04449010
     atom    4 type  4   force =     0.00035172   -0.00027489    0.00030656
     atom    5 type  4   force =    -0.00507472   -0.00809529    0.00038118
     atom    6 type  4   force =     0.00094107   -0.00742554    0.00030461
     atom    7 type  4   force =     0.01708945    0.01008239    0.00082399
     atom    8 type  4   force =    -0.00611301    0.00407049    0.00029059
     atom    9 type  4   force =    -0.00896607    0.00002870    0.00027220
     atom   10 type  4   force =     0.00000008    0.00058738    0.00022684
     atom   11 type  4   force =     0.00000024   -0.00474768    0.00041461
     atom   12 type  4   force =    -0.00358851   -0.00201947    0.00031561
     atom   13 type  4   force =    -0.00431033    0.00235304    0.00035149
     atom   14 type  4   force =    -0.00000000    0.00460837    0.00033639
     atom   15 type  4   force =    -0.00000022   -0.00641902    0.00055029
     atom   16 type  4   force =    -0.04849329   -0.03933119    0.00052835
     atom   17 type  4   force =    -0.09513965   -0.12827829   -0.00090400
     atom   18 type  4   force =    -0.01836484   -0.01143699    0.00260096
     atom   19 type  4   force =    -0.16024702   -0.01933296    0.00077754
     atom   20 type  4   force =    -0.05811571   -0.02184595    0.00162918
     atom   21 type  4   force =    -0.00536842    0.00302109    0.00041993
     atom   22 type  4   force =     0.00358808   -0.00201939    0.00031561
     atom   23 type  4   force =     0.00431031    0.00235263    0.00035149
     atom   24 type  4   force =    -0.00035180   -0.00027498    0.00030656
     atom   25 type  4   force =     0.00507458   -0.00809551    0.00038119
     atom   26 type  4   force =     0.04849354   -0.03933129    0.00052837
     atom   27 type  4   force =     0.09513986   -0.12828025   -0.00090402
     atom   28 type  4   force =     0.00000073    0.04617837   -0.01076772
     atom   29 type  4   force =     0.03489033   -0.02099278   -0.02606855
     atom   30 type  4   force =    -0.06442843    0.14999775   -0.00110227
     atom   31 type  4   force =    -0.01051389    0.06153986    0.00129690
     atom   32 type  4   force =    -0.00479953    0.00799213    0.00039469
     atom   33 type  4   force =    -0.00652307    0.00310171    0.00021997
     atom   34 type  4   force =     0.00309443    0.00172567    0.00031033
     atom   35 type  4   force =    -0.00094114   -0.00742574    0.00030461
     atom   36 type  4   force =    -0.01708916    0.01008201    0.00082399
     atom   37 type  4   force =     0.01836510   -0.01143691    0.00260093
     atom   38 type  4   force =     0.16024317   -0.01933013    0.00077756
     atom   39 type  4   force =    -0.03486689   -0.02098608   -0.02606903
     atom   40 type  4   force =     0.06442561    0.14999710   -0.00110216
     atom   41 type  4   force =     0.00000056    0.02015705    0.00384692
     atom   42 type  4   force =    -0.00000028   -0.01914345    0.00112018
     atom   43 type  4   force =     0.00652284    0.00310175    0.00021997
     atom   44 type  4   force =    -0.00309443    0.00172587    0.00031032
     atom   45 type  4   force =    -0.00000016   -0.00014714    0.00041795
     atom   46 type  4   force =     0.00000017   -0.00320473    0.00032255
     atom   47 type  4   force =     0.00611278    0.00407049    0.00029059
     atom   48 type  4   force =     0.00896601    0.00002865    0.00027221
     atom   49 type  4   force =     0.05811513   -0.02184653    0.00162918
     atom   50 type  4   force =     0.00536879    0.00302159    0.00041993
     atom   51 type  4   force =     0.01051394    0.06153972    0.00129681
     atom   52 type  4   force =     0.00479928    0.00799216    0.00039469

     Total force =     0.407017     Total SCF correction =     0.000589

     number of scf cycles    =   2
     number of bfgs steps    =   1

     energy   old            =    -755.5960984288 Ry
     energy   new            =    -756.1915162579 Ry

     CASE: energy  _new < energy  _old

     new trust radius        =       0.1629030647 bohr
     new conv_thr            =       0.0000010000 Ry


ATOMIC_POSITIONS (angstrom)
H1       2.465297535   5.678202780   2.203471351
H2       2.465297594   6.448997499   2.193693910
V        2.465295447   5.698751431   0.041182221
C        0.000000000   0.000000000   0.000000000    0   0   0
C        0.000000000   1.423340089   0.000000000    0   0   0
C       -1.232648675   2.135010133   0.000000000    0   0   0
C       -1.232648675   3.558350222   0.000000000    0   0   0
C       -2.465297350   4.270020266   0.000000000    0   0   0
C       -2.465297350   5.693360355   0.000000000    0   0   0
C       -3.697946025   6.405030399   0.000000000    0   0   0
C       -3.697946025   7.828370488   0.000000000    0   0   0
C       -4.930594700   8.540040532   0.000000000    0   0   0
C       -4.930594700   9.963380621   0.000000000    0   0   0
C        2.465297350   0.000000000   0.000000000    0   0   0
C        2.465297350   1.423340089   0.000000000    0   0   0
C        1.232648675   2.135010133   0.000000000    0   0   0
C        1.172608263   3.478108534  -0.000592420
C        0.000000000   4.270020266   0.000000000    0   0   0
C       -0.098671382   5.681639609   0.000719154
C       -1.232648675   6.405030399   0.000000000    0   0   0
C       -1.232648675   7.828370488   0.000000000    0   0   0
C       -2.465297350   8.540040532   0.000000000    0   0   0
C       -2.465297350   9.963380621   0.000000000    0   0   0
C        4.930594700   0.000000000   0.000000000    0   0   0
C        4.930594700   1.423340089   0.000000000    0   0   0
C        3.697946025   2.135010133   0.000000000    0   0   0
C        3.757986226   3.478107402  -0.000592490
C        2.465297860   3.995294398  -0.008781498
C        0.990561432   6.544422336  -0.022837861
C        1.192481420   7.920648646  -0.000707391
C        0.000000000   8.540040532   0.000000000    0   0   0
C        0.000000000   9.963380621   0.000000000    0   0   0
C        7.395892050   0.000000000   0.000000000    0   0   0
C        7.395892050   1.423340089   0.000000000    0   0   0
C        6.163243375   2.135010133   0.000000000    0   0   0
C        6.163243375   3.558350222   0.000000000    0   0   0
C        4.930594700   4.270020266   0.000000000    0   0   0
C        5.029265025   5.681640429   0.000719045
C        3.940041952   6.544425193  -0.022838008
C        3.738112130   7.920649199  -0.000707510
C        2.465297350   8.540040532   0.000000000    0   0   0
C        2.465297350   9.963380621   0.000000000    0   0   0
C        9.861189400   0.000000000   0.000000000    0   0   0
C        9.861189400   1.423340089   0.000000000    0   0   0
C        8.628540725   2.135010133   0.000000000    0   0   0
C        8.628540725   3.558350222   0.000000000    0   0   0
C        7.395892050   4.270020266   0.000000000    0   0   0
C        7.395892050   5.693360355   0.000000000    0   0   0
C        6.163243375   6.405030399   0.000000000    0   0   0
C        6.163243375   7.828370488   0.000000000    0   0   0
C        4.930594700   8.540040532   0.000000000    0   0   0
C        4.930594700   9.963380621   0.000000000    0   0   0



     Writing output data file gr-12.save/
     NEW-OLD atomic charge density approx. for the potential

     Check: negative core charge=   -0.000002

     negative rho (up, down):  9.293E-03 0.000E+00

     total cpu time spent up to now is     4710.2 secs

     Self-consistent Calculation

     iteration #  1     ecut=    70.00 Ry     beta= 0.30
     Davidson diagonalization with overlap
     ethr =  1.00E-06,  avg # of iterations = 16.2

     negative rho (up, down):  9.384E-03 0.000E+00

     total cpu time spent up to now is     5133.0 secs

     total energy              =    -756.22769463 Ry
     Harris-Foulkes estimate   =    -756.24439933 Ry
     estimated scf accuracy    <       0.05158848 Ry

     iteration #  2     ecut=    70.00 Ry     beta= 0.30
     Davidson diagonalization with overlap
     ethr =  2.44E-05,  avg # of iterations =  2.0

     negative rho (up, down):  9.997E-03 0.000E+00

     total cpu time spent up to now is     5271.2 secs

     total energy              =    -756.22951877 Ry
     Harris-Foulkes estimate   =    -756.23272415 Ry
     estimated scf accuracy    <       0.01282622 Ry

     iteration #  3     ecut=    70.00 Ry     beta= 0.30
     Davidson diagonalization with overlap
     ethr =  6.08E-06,  avg # of iterations =  8.2

     negative rho (up, down):  9.744E-03 0.000E+00

     total cpu time spent up to now is     5426.0 secs

     total energy              =    -756.22880797 Ry
     Harris-Foulkes estimate   =    -756.23296147 Ry
     estimated scf accuracy    <       0.02294727 Ry

     iteration #  4     ecut=    70.00 Ry     beta= 0.30
     Davidson diagonalization with overlap
     ethr =  6.08E-06,  avg # of iterations =  5.5

     negative rho (up, down):  1.311E-02 0.000E+00

     total cpu time spent up to now is     5568.8 secs

     total energy              =    -756.23087818 Ry
     Harris-Foulkes estimate   =    -756.23131254 Ry
     estimated scf accuracy    <       0.00274262 Ry

     iteration #  5     ecut=    70.00 Ry     beta= 0.30
     Davidson diagonalization with overlap
     ethr =  1.30E-06,  avg # of iterations =  4.0

     negative rho (up, down):  1.426E-02 0.000E+00

     total cpu time spent up to now is     5711.7 secs

     total energy              =    -756.23106019 Ry
     Harris-Foulkes estimate   =    -756.23109727 Ry
     estimated scf accuracy    <       0.00024195 Ry

     iteration #  6     ecut=    70.00 Ry     beta= 0.30
     Davidson diagonalization with overlap
     ethr =  1.15E-07,  avg # of iterations =  3.2

     negative rho (up, down):  1.342E-02 0.000E+00

     total cpu time spent up to now is     5852.8 secs

     total energy              =    -756.23116911 Ry
     Harris-Foulkes estimate   =    -756.23108969 Ry
     estimated scf accuracy    <       0.00004087 Ry

     iteration #  7     ecut=    70.00 Ry     beta= 0.30
     Davidson diagonalization with overlap
     ethr =  1.94E-08,  avg # of iterations =  2.5

     negative rho (up, down):  1.281E-02 0.000E+00

     total cpu time spent up to now is     5991.6 secs

     total energy              =    -756.23121713 Ry
     Harris-Foulkes estimate   =    -756.23117253 Ry
     estimated scf accuracy    <       0.00000827 Ry

     iteration #  8     ecut=    70.00 Ry     beta= 0.30
     Davidson diagonalization with overlap
     ethr =  3.92E-09,  avg # of iterations =  3.0

     negative rho (up, down):  9.681E-03 0.000E+00

     total cpu time spent up to now is     6131.5 secs

     End of self-consistent calculation

          k = 0.0000 0.0000 0.0000 ( 87777 PWs)   bands (ev):

   -63.7030 -37.8741 -37.7830 -37.7779 -19.7493 -19.0604 -19.0582 -18.8091
   -18.8056 -18.6979 -18.4032 -17.2498 -17.1165 -17.1153 -16.8224 -16.8196
   -16.4319 -16.2879 -16.2864 -16.1751 -15.8030 -15.8027 -14.8743 -14.2555
   -13.9979 -13.9931 -13.7364 -13.7359 -13.2553 -13.0526 -13.0518 -12.9444
   -12.5000 -12.4968 -12.1991 -11.6669 -11.6634 -11.6336 -11.1746 -11.1718
    -9.9387  -9.5119  -9.5068  -9.3092  -9.2143  -9.2106  -9.1699  -9.1055
    -9.1039  -9.0507  -8.6325  -8.5068  -8.5037  -8.1746  -7.9088  -7.9068
    -7.8636  -7.7837  -7.1807  -7.1801  -7.0290  -7.0234  -6.7434  -6.7222
    -6.7179  -6.7093  -6.7088  -6.6222  -6.5498  -6.4605  -6.4605  -6.4521
    -6.3518  -6.3506  -6.2679  -6.1902  -5.2769  -5.2751  -5.0418  -4.8010
    -4.7878  -4.7796  -4.7239  -4.7203  -4.6203  -4.6116  -4.5976  -4.0956
    -3.9170  -3.9153  -3.6910  -3.6871  -3.6723  -3.4309  -3.4280  -2.7735
    -2.6455  -2.0283  -2.0041  -1.8847  -1.8802  -1.8782  -1.7107  -1.7072
    -0.4341  -0.0051   0.0420   1.0527   1.1259   1.1334   1.1932   1.9220
     1.9459   2.0012   2.7657   2.9383   3.0189   3.0908   3.1680   3.5423
     3.8296   3.8317   3.8583   4.0373   4.0631   4.0968   4.0981

          k = 0.0000-0.5774 0.0000 ( 87818 PWs)   bands (ev):

   -63.7030 -37.8741 -37.7831 -37.7779 -19.5572 -19.4953 -19.1860 -18.9574
   -18.3219 -18.1815 -18.1381 -17.8300 -17.6651 -17.4939 -16.8083 -16.7356
   -16.6872 -16.2617 -15.6138 -15.4525 -15.2544 -15.1955 -15.0885 -14.9412
   -14.8978 -14.6209 -14.0202 -13.6770 -13.4802 -12.9334 -12.7573 -12.7003
   -12.3356 -12.2764 -11.8451 -11.5606 -11.3358 -11.2383 -10.9093 -10.8076
   -10.4493 -10.3424 -10.2209 -10.0375  -9.8262  -9.4240  -8.9592  -8.9040
    -8.8123  -8.6332  -8.6029  -8.5507  -7.9740  -7.9088  -7.7641  -7.6732
    -7.6014  -7.4856  -7.4013  -7.3810  -7.1814  -7.1789  -7.1364  -7.0057
    -6.9775  -6.8750  -6.7758  -6.5313  -6.5243  -6.1671  -6.1122  -6.0842
    -6.0523  -5.9734  -5.8427  -5.7629  -5.6173  -5.6035  -5.5945  -5.4264
    -5.2294  -5.1391  -4.8812  -4.6073  -4.4051  -4.3276  -4.3115  -4.2158
    -4.1027  -3.9164  -3.6584  -3.2253  -3.1120  -2.9118  -2.8526  -2.8413
    -2.7041  -2.6723  -2.6014  -2.5821  -2.0696  -1.9306  -1.6243  -1.4251
    -0.5037   0.1177   0.1237   1.0724   1.1481   1.1575   1.7972   1.8973
     2.0413   2.4405   2.4605   2.5893   2.8521   3.0608   3.0633   3.2298
     3.4501   3.4586   3.6324   3.7764   3.9245   4.3080   4.3204

          k = 0.5000-0.2887 0.0000 ( 87818 PWs)   bands (ev):

   -63.7030 -37.8741 -37.7830 -37.7779 -19.5527 -19.5012 -19.1856 -18.9554
   -18.3228 -18.1820 -18.1392 -17.8295 -17.6626 -17.4960 -16.8051 -16.7390
   -16.6866 -16.2609 -15.6141 -15.4540 -15.2521 -15.1956 -15.0895 -14.9424
   -14.8976 -14.6222 -14.0167 -13.6771 -13.4793 -12.9355 -12.7577 -12.6996
   -12.3392 -12.2761 -11.8452 -11.5563 -11.3378 -11.2381 -10.9074 -10.8047
   -10.4491 -10.3434 -10.2224 -10.0410  -9.8231  -9.4297  -8.9588  -8.9091
    -8.8048  -8.6559  -8.5933  -8.5332  -7.9752  -7.9076  -7.7643  -7.6750
    -7.6085  -7.4805  -7.4041  -7.3811  -7.1791  -7.1770  -7.1367  -7.0035
    -6.9737  -6.8735  -6.7756  -6.5330  -6.5230  -6.1712  -6.1164  -6.0829
    -6.0529  -5.9764  -5.8443  -5.7626  -5.6196  -5.6046  -5.5953  -5.4301
    -5.2224  -5.1347  -4.8812  -4.6035  -4.4072  -4.3281  -4.3089  -4.2141
    -4.1028  -3.9159  -3.6609  -3.2270  -3.1161  -2.9082  -2.8573  -2.8366
    -2.7069  -2.6742  -2.6010  -2.5822  -2.0506  -1.9485  -1.6183  -1.4313
    -0.4988   0.0861   0.1653   1.0119   1.1297   1.2282   1.8097   1.8967
     2.0369   2.4226   2.4548   2.5894   2.9384   3.0402   3.0520   3.1716
     3.2637   3.6390   3.6681   3.7835   3.9023   4.2939   4.3603

          k =-0.5000-0.2887 0.0000 ( 87818 PWs)   bands (ev):

   -63.7030 -37.8741 -37.7830 -37.7779 -19.5527 -19.5012 -19.1856 -18.9554
   -18.3228 -18.1820 -18.1392 -17.8295 -17.6626 -17.4960 -16.8051 -16.7390
   -16.6866 -16.2609 -15.6141 -15.4540 -15.2521 -15.1956 -15.0895 -14.9424
   -14.8976 -14.6222 -14.0167 -13.6771 -13.4793 -12.9355 -12.7577 -12.6996
   -12.3392 -12.2761 -11.8452 -11.5563 -11.3378 -11.2381 -10.9074 -10.8047
   -10.4491 -10.3434 -10.2224 -10.0410  -9.8231  -9.4297  -8.9588  -8.9091
    -8.8048  -8.6559  -8.5933  -8.5332  -7.9752  -7.9076  -7.7643  -7.6750
    -7.6085  -7.4805  -7.4041  -7.3811  -7.1791  -7.1770  -7.1367  -7.0035
    -6.9737  -6.8735  -6.7756  -6.5330  -6.5230  -6.1712  -6.1164  -6.0829
    -6.0529  -5.9764  -5.8443  -5.7626  -5.6196  -5.6046  -5.5953  -5.4301
    -5.2224  -5.1347  -4.8812  -4.6035  -4.4072  -4.3281  -4.3089  -4.2141
    -4.1028  -3.9159  -3.6609  -3.2270  -3.1161  -2.9082  -2.8573  -2.8366
    -2.7069  -2.6742  -2.6010  -2.5822  -2.0506  -1.9485  -1.6183  -1.4313
    -0.4988   0.0861   0.1653   1.0119   1.1297   1.2282   1.8097   1.8967
     2.0369   2.4226   2.4548   2.5894   2.9384   3.0402   3.0520   3.1716
     3.2637   3.6390   3.6681   3.7835   3.9023   4.2939   4.3603

     the Fermi energy is     0.0546 ev

!    total energy              =    -756.23136846 Ry
     Harris-Foulkes estimate   =    -756.23121798 Ry
     estimated scf accuracy    <       0.00000098 Ry

     The total energy is the sum of the following terms:

     one-electron contribution =   -2578.35192569 Ry
     hartree contribution      =    1335.75424408 Ry
     xc contribution           =    -250.28360309 Ry
     ewald contribution        =     736.78861284 Ry
     DFT-D3 Dispersion         =      -0.13873720 Ry
     smearing contrib. (-TS)   =       0.00004060 Ry

     convergence has been achieved in   8 iterations

     negative rho (up, down):  9.681E-03 0.000E+00

     Forces acting on atoms (cartesian axes, Ry/au):

     atom    1 type  1   force =    -0.00000002   -0.00415306    0.00080444
     atom    2 type  2   force =     0.00000000   -0.00846295   -0.01192572
     atom    3 type  3   force =     0.00001451    0.00494383    0.09194803
     atom    4 type  4   force =    -0.00343263    0.00195636   -0.00038829
     atom    5 type  4   force =    -0.01390501   -0.02312314    0.00009281
     atom    6 type  4   force =     0.00211774   -0.01044067   -0.00021420
     atom    7 type  4   force =     0.01153676    0.00682087    0.00068859
     atom    8 type  4   force =    -0.00812901    0.00656429   -0.00024224
     atom    9 type  4   force =    -0.02644822    0.00007742    0.00010985
     atom   10 type  4   force =    -0.00000002   -0.00379411   -0.00050718
     atom   11 type  4   force =    -0.00000028   -0.00551313   -0.00006789
     atom   12 type  4   force =    -0.00714052   -0.00410679   -0.00020431
     atom   13 type  4   force =    -0.00502623    0.00275983   -0.00013018
     atom   14 type  4   force =     0.00000009    0.00869000   -0.00015644
     atom   15 type  4   force =     0.00000001   -0.01212041   -0.00016017
     atom   16 type  4   force =    -0.06483037   -0.13331862    0.00076003
     atom   17 type  4   force =     0.05718184    0.06570340   -0.00274034
     atom   18 type  4   force =    -0.07443393   -0.04424821    0.00229726
     atom   19 type  4   force =     0.08400698    0.01707097   -0.00321636
     atom   20 type  4   force =    -0.14855418    0.01076063    0.00253388
     atom   21 type  4   force =    -0.01045830    0.00576531   -0.00043694
     atom   22 type  4   force =     0.00714111   -0.00410701   -0.00020432
     atom   23 type  4   force =     0.00502618    0.00276006   -0.00013018
     atom   24 type  4   force =     0.00343276    0.00195639   -0.00038831
     atom   25 type  4   force =     0.01390519   -0.02312323    0.00009282
     atom   26 type  4   force =     0.06483013   -0.13332096    0.00075998
     atom   27 type  4   force =    -0.05717958    0.06570711   -0.00274030
     atom   28 type  4   force =    -0.00000227   -0.00901138   -0.01588953
     atom   29 type  4   force =    -0.00969666    0.00734230   -0.03012266
     atom   30 type  4   force =     0.02810746   -0.08304593   -0.00468034
     atom   31 type  4   force =    -0.08525115    0.12461008    0.00218888
     atom   32 type  4   force =    -0.01362999    0.02334338    0.00032164
     atom   33 type  4   force =    -0.00972480    0.00352575   -0.00030035
     atom   34 type  4   force =     0.00264646    0.00151493   -0.00021983
     atom   35 type  4   force =    -0.00211770   -0.01044072   -0.00021421
     atom   36 type  4   force =    -0.01153721    0.00682148    0.00068863
     atom   37 type  4   force =     0.07443259   -0.04424921    0.00229726
     atom   38 type  4   force =    -0.08399952    0.01706836   -0.00321627
     atom   39 type  4   force =     0.00966981    0.00733629   -0.03012187
     atom   40 type  4   force =    -0.02810117   -0.08304659   -0.00468038
     atom   41 type  4   force =    -0.00000192    0.08575393    0.00295819
     atom   42 type  4   force =     0.00000012   -0.01258082    0.00109766
     atom   43 type  4   force =     0.00972475    0.00352578   -0.00030036
     atom   44 type  4   force =    -0.00264659    0.00151483   -0.00021984
     atom   45 type  4   force =     0.00000016   -0.00025160   -0.00007986
     atom   46 type  4   force =    -0.00000033   -0.00255742   -0.00021615
     atom   47 type  4   force =     0.00812937    0.00656407   -0.00024224
     atom   48 type  4   force =     0.02644815    0.00007781    0.00010984
     atom   49 type  4   force =     0.14855636    0.01076075    0.00253390
     atom   50 type  4   force =     0.01045798    0.00576475   -0.00043691
     atom   51 type  4   force =     0.08525061    0.12461170    0.00218886
     atom   52 type  4   force =     0.01363052    0.02334328    0.00032166

     Total force =     0.237647     Total SCF correction =     0.002073

     number of scf cycles    =   3
     number of bfgs steps    =   2

     energy   old            =    -756.1915162579 Ry
     energy   new            =    -756.2313684610 Ry

     CASE: energy  _new < energy  _old

     new trust radius        =       0.0633417102 bohr
     new conv_thr            =       0.0000009195 Ry


ATOMIC_POSITIONS (angstrom)
H1       2.465297531   5.676491960   2.203760605
H2       2.465297594   6.445994346   2.189210432
V        2.465299891   5.700519565   0.074654543
C        0.000000000   0.000000000   0.000000000    0   0   0
C        0.000000000   1.423340089   0.000000000    0   0   0
C       -1.232648675   2.135010133   0.000000000    0   0   0
C       -1.232648675   3.558350222   0.000000000    0   0   0
C       -2.465297350   4.270020266   0.000000000    0   0   0
C       -2.465297350   5.693360355   0.000000000    0   0   0
C       -3.697946025   6.405030399   0.000000000    0   0   0
C       -3.697946025   7.828370488   0.000000000    0   0   0
C       -4.930594700   8.540040532   0.000000000    0   0   0
C       -4.930594700   9.963380621   0.000000000    0   0   0
C        2.465297350   0.000000000   0.000000000    0   0   0
C        2.465297350   1.423340089   0.000000000    0   0   0
C        1.232648675   2.135010133   0.000000000    0   0   0
C        1.190509562   3.498169842  -0.001589964
C        0.000000000   4.270020266   0.000000000    0   0   0
C       -0.072969996   5.687202688  -0.000411905
C       -1.232648675   6.405030399   0.000000000    0   0   0
C       -1.232648675   7.828370488   0.000000000    0   0   0
C       -2.465297350   8.540040532   0.000000000    0   0   0
C       -2.465297350   9.963380621   0.000000000    0   0   0
C        4.930594700   0.000000000   0.000000000    0   0   0
C        4.930594700   1.423340089   0.000000000    0   0   0
C        3.697946025   2.135010133   0.000000000    0   0   0
C        3.740085744   3.498169976  -0.001590019
C        2.465297071   4.002175466  -0.014653084
C        0.995744040   6.542024181  -0.034037398
C        1.200812727   7.895023794  -0.002400549
C        0.000000000   8.540040532   0.000000000    0   0   0
C        0.000000000   9.963380621   0.000000000    0   0   0
C        7.395892050   0.000000000   0.000000000    0   0   0
C        7.395892050   1.423340089   0.000000000    0   0   0
C        6.163243375   2.135010133   0.000000000    0   0   0
C        6.163243375   3.558350222   0.000000000    0   0   0
C        4.930594700   4.270020266   0.000000000    0   0   0
C        5.003566151   5.687202679  -0.000411977
C        3.934850570   6.542025112  -0.034037284
C        3.729782970   7.895024071  -0.002400673
C        2.465297350   8.540040532   0.000000000    0   0   0
C        2.465297350   9.963380621   0.000000000    0   0   0
C        9.861189400   0.000000000   0.000000000    0   0   0
C        9.861189400   1.423340089   0.000000000    0   0   0
C        8.628540725   2.135010133   0.000000000    0   0   0
C        8.628540725   3.558350222   0.000000000    0   0   0
C        7.395892050   4.270020266   0.000000000    0   0   0
C        7.395892050   5.693360355   0.000000000    0   0   0
C        6.163243375   6.405030399   0.000000000    0   0   0
C        6.163243375   7.828370488   0.000000000    0   0   0
C        4.930594700   8.540040532   0.000000000    0   0   0
C        4.930594700   9.963380621   0.000000000    0   0   0



     Writing output data file gr-12.save/
     NEW-OLD atomic charge density approx. for the potential

     Check: negative core charge=   -0.000002

     negative rho (up, down):  8.948E-03 0.000E+00

     total cpu time spent up to now is     6226.0 secs

     Self-consistent Calculation

     iteration #  1     ecut=    70.00 Ry     beta= 0.30
     Davidson diagonalization with overlap
     ethr =  1.00E-06,  avg # of iterations =  9.8

     negative rho (up, down):  7.608E-03 0.000E+00

     total cpu time spent up to now is     6596.2 secs

     total energy              =    -756.25299459 Ry
     Harris-Foulkes estimate   =    -756.25283672 Ry
     estimated scf accuracy    <       0.00640129 Ry

     iteration #  2     ecut=    70.00 Ry     beta= 0.30
     Davidson diagonalization with overlap
     ethr =  3.03E-06,  avg # of iterations =  4.0

     negative rho (up, down):  7.316E-03 0.000E+00

     total cpu time spent up to now is     6734.2 secs

     total energy              =    -756.25389599 Ry
     Harris-Foulkes estimate   =    -756.25353424 Ry
     estimated scf accuracy    <       0.00215023 Ry

     iteration #  3     ecut=    70.00 Ry     beta= 0.30
     Davidson diagonalization with overlap
     ethr =  1.02E-06,  avg # of iterations =  5.8

     negative rho (up, down):  6.442E-03 0.000E+00

     total cpu time spent up to now is     6875.7 secs

     total energy              =    -756.25411612 Ry
     Harris-Foulkes estimate   =    -756.25446245 Ry
     estimated scf accuracy    <       0.00390668 Ry

     iteration #  4     ecut=    70.00 Ry     beta= 0.30
     Davidson diagonalization with overlap
     ethr =  1.02E-06,  avg # of iterations =  3.2

     negative rho (up, down):  1.500E-02 0.000E+00

     total cpu time spent up to now is     7012.8 secs

     total energy              =    -756.25409639 Ry
     Harris-Foulkes estimate   =    -756.25447872 Ry
     estimated scf accuracy    <       0.00038059 Ry

     iteration #  5     ecut=    70.00 Ry     beta= 0.30
     Davidson diagonalization with overlap
     ethr =  1.80E-07,  avg # of iterations =  5.5

     negative rho (up, down):  1.586E-02 0.000E+00

     total cpu time spent up to now is     7165.6 secs

     total energy              =    -756.25411983 Ry
     Harris-Foulkes estimate   =    -756.25414381 Ry
     estimated scf accuracy    <       0.00005528 Ry

     iteration #  6     ecut=    70.00 Ry     beta= 0.30
     Davidson diagonalization with overlap
     ethr =  2.62E-08,  avg # of iterations =  3.0

     negative rho (up, down):  1.391E-02 0.000E+00

     total cpu time spent up to now is     7301.6 secs

     total energy              =    -756.25429786 Ry
     Harris-Foulkes estimate   =    -756.25412501 Ry
     estimated scf accuracy    <       0.00000964 Ry

     iteration #  7     ecut=    70.00 Ry     beta= 0.30
     Davidson diagonalization with overlap
     ethr =  4.57E-09,  avg # of iterations =  4.0

     negative rho (up, down):  1.151E-02 0.000E+00

     total cpu time spent up to now is     7451.2 secs

     total energy              =    -756.25452526 Ry
     Harris-Foulkes estimate   =    -756.25429987 Ry
     estimated scf accuracy    <       0.00000218 Ry

     iteration #  8     ecut=    70.00 Ry     beta= 0.30
     Davidson diagonalization with overlap
     ethr =  1.03E-09,  avg # of iterations =  4.8

     negative rho (up, down):  6.889E-03 0.000E+00

     total cpu time spent up to now is     7613.8 secs

     End of self-consistent calculation

          k = 0.0000 0.0000 0.0000 ( 87777 PWs)   bands (ev):

   -63.7242 -37.8842 -37.8215 -37.8195 -19.7297 -19.0308 -19.0256 -18.7794
   -18.7742 -18.6930 -18.4257 -17.1647 -17.1154 -17.1122 -16.8332 -16.8287
   -16.4462 -16.2551 -16.2534 -16.1486 -15.8373 -15.8364 -14.9425 -14.2433
   -13.9531 -13.9479 -13.7848 -13.7826 -13.2784 -13.0253 -13.0244 -12.9394
   -12.5301 -12.5245 -12.1392 -11.6960 -11.6933 -11.6502 -11.1670 -11.1643
    -9.9844  -9.4962  -9.4897  -9.3650  -9.1901  -9.1872  -9.1376  -9.1021
    -9.1003  -9.0435  -8.7949  -8.5131  -8.5125  -8.1298  -7.8900  -7.8877
    -7.8720  -7.7803  -7.2017  -7.2007  -7.0221  -7.0146  -6.7549  -6.7078
    -6.6997  -6.6884  -6.6881  -6.6181  -6.5147  -6.4820  -6.4820  -6.4775
    -6.3545  -6.3535  -6.3077  -6.2249  -5.2914  -5.2891  -5.0238  -4.8429
    -4.8329  -4.7699  -4.7663  -4.7347  -4.6337  -4.6121  -4.6014  -4.1117
    -3.9020  -3.8998  -3.7007  -3.6954  -3.6624  -3.4705  -3.4676  -2.7997
    -2.6721  -2.0337  -2.0100  -1.8935  -1.8892  -1.8573  -1.6923  -1.6888
    -0.4729   0.0072   0.0669   1.0706   1.1275   1.1442   1.1583   1.9022
     1.9287   2.0619   2.7443   2.9345   2.9741   3.0523   3.1387   3.5109
     3.8045   3.8054   3.8558   4.0314   4.0524   4.0924   4.1004

          k = 0.0000-0.5774 0.0000 ( 87818 PWs)   bands (ev):

   -63.7242 -37.8842 -37.8215 -37.8195 -19.5358 -19.4740 -19.1564 -18.9433
   -18.2861 -18.1753 -18.1073 -17.8172 -17.6720 -17.4843 -16.7880 -16.7166
   -16.6806 -16.3039 -15.5854 -15.4547 -15.2424 -15.2012 -15.1000 -14.9282
   -14.9038 -14.6181 -14.0665 -13.6969 -13.4942 -12.9526 -12.7384 -12.6628
   -12.3596 -12.2821 -11.8722 -11.5829 -11.2954 -11.2415 -10.9134 -10.7769
   -10.4635 -10.3201 -10.2372 -10.0235  -9.8664  -9.4209  -8.9334  -8.9295
    -8.8164  -8.7567  -8.5787  -8.5714  -7.9846  -7.9452  -7.7812  -7.6832
    -7.5880  -7.4821  -7.3838  -7.3386  -7.1696  -7.1650  -7.1020  -7.0151
    -6.9795  -6.8725  -6.7793  -6.5217  -6.5118  -6.1641  -6.1394  -6.0830
    -6.0762  -5.9467  -5.8377  -5.7735  -5.6504  -5.6235  -5.6028  -5.4374
    -5.2353  -5.1971  -4.8949  -4.6404  -4.3785  -4.3429  -4.3097  -4.2466
    -4.1448  -3.9610  -3.6939  -3.1998  -3.1662  -2.9247  -2.8360  -2.8292
    -2.6919  -2.6681  -2.5965  -2.5747  -2.0772  -1.9364  -1.6521  -1.4099
    -0.5266   0.1239   0.1407   1.0817   1.1154   1.2046   1.7970   1.8995
     2.0418   2.4228   2.4594   2.5610   2.8108   3.0199   3.0363   3.2325
     3.4183   3.4328   3.6467   3.7747   3.9128   4.2764   4.3233

          k = 0.5000-0.2887 0.0000 ( 87818 PWs)   bands (ev):

   -63.7242 -37.8842 -37.8215 -37.8196 -19.5301 -19.4814 -19.1548 -18.9422
   -18.2870 -18.1763 -18.1084 -17.8159 -17.6686 -17.4871 -16.7829 -16.7219
   -16.6812 -16.3023 -15.5865 -15.4551 -15.2406 -15.2007 -15.1007 -14.9304
   -14.9029 -14.6193 -14.0632 -13.6964 -13.4935 -12.9561 -12.7390 -12.6631
   -12.3632 -12.2803 -11.8730 -11.5768 -11.2978 -11.2406 -10.9111 -10.7747
   -10.4628 -10.3206 -10.2387 -10.0283  -9.8624  -9.4273  -8.9461  -8.9320
    -8.7906  -8.7737  -8.5728  -8.5666  -7.9864  -7.9434  -7.7794  -7.6822
    -7.5946  -7.4774  -7.3855  -7.3393  -7.1666  -7.1651  -7.1018  -7.0133
    -6.9758  -6.8713  -6.7800  -6.5238  -6.5109  -6.1674  -6.1431  -6.0847
    -6.0747  -5.9508  -5.8398  -5.7739  -5.6516  -5.6251  -5.6028  -5.4399
    -5.2278  -5.1928  -4.8956  -4.6345  -4.3824  -4.3426  -4.3078  -4.2454
    -4.1449  -3.9607  -3.6964  -3.2038  -3.1710  -2.9202  -2.8401  -2.8246
    -2.6938  -2.6697  -2.5954  -2.5750  -2.0556  -1.9563  -1.6443  -1.4161
    -0.5288   0.1002   0.1840   1.0122   1.1039   1.2733   1.8114   1.8996
     2.0359   2.4027   2.4524   2.5622   2.8980   3.0125   3.0170   3.1366
     3.2691   3.6377   3.6602   3.7761   3.8883   4.2705   4.3519

          k =-0.5000-0.2887 0.0000 ( 87818 PWs)   bands (ev):

   -63.7242 -37.8842 -37.8215 -37.8196 -19.5301 -19.4814 -19.1548 -18.9422
   -18.2870 -18.1763 -18.1084 -17.8159 -17.6686 -17.4871 -16.7829 -16.7219
   -16.6812 -16.3023 -15.5865 -15.4551 -15.2406 -15.2007 -15.1007 -14.9304
   -14.9029 -14.6193 -14.0632 -13.6964 -13.4935 -12.9561 -12.7390 -12.6631
   -12.3632 -12.2803 -11.8730 -11.5768 -11.2978 -11.2406 -10.9111 -10.7747
   -10.4628 -10.3206 -10.2387 -10.0283  -9.8624  -9.4273  -8.9461  -8.9320
    -8.7906  -8.7737  -8.5728  -8.5666  -7.9864  -7.9434  -7.7794  -7.6822
    -7.5946  -7.4774  -7.3855  -7.3393  -7.1666  -7.1651  -7.1018  -7.0133
    -6.9758  -6.8713  -6.7800  -6.5238  -6.5109  -6.1674  -6.1431  -6.0847
    -6.0747  -5.9508  -5.8398  -5.7739  -5.6516  -5.6251  -5.6028  -5.4399
    -5.2278  -5.1928  -4.8956  -4.6345  -4.3824  -4.3426  -4.3078  -4.2454
    -4.1449  -3.9607  -3.6964  -3.2038  -3.1710  -2.9202  -2.8401  -2.8246
    -2.6938  -2.6697  -2.5954  -2.5750  -2.0556  -1.9563  -1.6443  -1.4161
    -0.5288   0.1002   0.1840   1.0122   1.1039   1.2733   1.8114   1.8996
     2.0359   2.4027   2.4524   2.5622   2.8980   3.0125   3.0170   3.1366
     3.2691   3.6377   3.6602   3.7761   3.8883   4.2705   4.3519

     the Fermi energy is     0.0792 ev

!    total energy              =    -756.25480008 Ry
     Harris-Foulkes estimate   =    -756.25452671 Ry
     estimated scf accuracy    <       0.00000063 Ry

     The total energy is the sum of the following terms:

     one-electron contribution =   -2580.05019258 Ry
     hartree contribution      =    1336.57395314 Ry
     xc contribution           =    -250.27609487 Ry
     ewald contribution        =     737.63636145 Ry
     DFT-D3 Dispersion         =      -0.13885939 Ry
     smearing contrib. (-TS)   =       0.00003217 Ry

     convergence has been achieved in   8 iterations

     negative rho (up, down):  6.889E-03 0.000E+00

     Forces acting on atoms (cartesian axes, Ry/au):

     atom    1 type  1   force =     0.00000003   -0.00677523    0.00142149
     atom    2 type  2   force =     0.00000002   -0.00564384   -0.01225327
     atom    3 type  3   force =    -0.00000549    0.00434058    0.10637186
     atom    4 type  4   force =    -0.00213600    0.00122356   -0.00036873
     atom    5 type  4   force =    -0.01099274   -0.01786998    0.00048943
     atom    6 type  4   force =     0.00177142   -0.00930034   -0.00002429
     atom    7 type  4   force =     0.01339635    0.00777925    0.00140826
     atom    8 type  4   force =    -0.00731759    0.00573131   -0.00007037
     atom    9 type  4   force =    -0.02071553   -0.00001918    0.00061614
     atom   10 type  4   force =     0.00000000   -0.00256477   -0.00050162
     atom   11 type  4   force =     0.00000009   -0.00514921    0.00013710
     atom   12 type  4   force =    -0.00612110   -0.00368360   -0.00003591
     atom   13 type  4   force =    -0.00479698    0.00280255    0.00006381
     atom   14 type  4   force =     0.00000001    0.00736765    0.00002078
     atom   15 type  4   force =    -0.00000006   -0.01069375   -0.00014526
     atom   16 type  4   force =    -0.05918407   -0.10115962    0.00161601
     atom   17 type  4   force =     0.01030805    0.00697266   -0.00364143
     atom   18 type  4   force =    -0.05510975   -0.03257554    0.00183764
     atom   19 type  4   force =     0.01063688    0.00510583   -0.00421935
     atom   20 type  4   force =    -0.11864800   -0.00035500    0.00382544
     atom   21 type  4   force =    -0.00942650    0.00534611   -0.00055063
[...]
C        4.930594700   8.540040532   0.000000000    0   0   0
C        4.930594700   9.963380621   0.000000000    0   0   0



     Writing output data file gr-12.save/
     NEW-OLD atomic charge density approx. for the potential

     Check: negative core charge=   -0.000002

     negative rho (up, down):  1.307E-03 0.000E+00

     total cpu time spent up to now is    77572.8 secs

     Self-consistent Calculation

     iteration #  1     ecut=    70.00 Ry     beta= 0.30
     Davidson diagonalization with overlap
     ethr =  1.00E-06,  avg # of iterations =  4.0

     Threshold (ethr) on eigenvalues was too large:
     Diagonalizing with lowered threshold

     Davidson diagonalization with overlap
     ethr =  6.35E-08,  avg # of iterations =  1.0

     negative rho (up, down):  1.282E-03 0.000E+00

     total cpu time spent up to now is    77891.1 secs

     total energy              =    -756.61296073 Ry
     Harris-Foulkes estimate   =    -756.61300673 Ry
     estimated scf accuracy    <       0.00013421 Ry

     iteration #  2     ecut=    70.00 Ry     beta= 0.30
     Davidson diagonalization with overlap
     ethr =  6.36E-08,  avg # of iterations =  3.0

     negative rho (up, down):  1.277E-03 0.000E+00

     total cpu time spent up to now is    78033.1 secs

     total energy              =    -756.61294679 Ry
     Harris-Foulkes estimate   =    -756.61300127 Ry
     estimated scf accuracy    <       0.00030233 Ry

     iteration #  3     ecut=    70.00 Ry     beta= 0.30
     Davidson diagonalization with overlap
     ethr =  6.36E-08,  avg # of iterations =  3.5

     negative rho (up, down):  1.263E-03 0.000E+00

     total cpu time spent up to now is    78180.2 secs

     total energy              =    -756.61297016 Ry
     Harris-Foulkes estimate   =    -756.61298070 Ry
     estimated scf accuracy    <       0.00004754 Ry

     iteration #  4     ecut=    70.00 Ry     beta= 0.30
     Davidson diagonalization with overlap
     ethr =  2.25E-08,  avg # of iterations =  2.0

     negative rho (up, down):  1.259E-03 0.000E+00

     total cpu time spent up to now is    78326.6 secs

     total energy              =    -756.61297376 Ry
     Harris-Foulkes estimate   =    -756.61297433 Ry
     estimated scf accuracy    <       0.00000281 Ry

     iteration #  5     ecut=    70.00 Ry     beta= 0.30
     Davidson diagonalization with overlap
     ethr =  1.33E-09,  avg # of iterations =  3.0

     negative rho (up, down):  1.258E-03 0.000E+00

     total cpu time spent up to now is    78475.6 secs

     total energy              =    -756.61297420 Ry
     Harris-Foulkes estimate   =    -756.61297413 Ry
     estimated scf accuracy    <       0.00000037 Ry

     iteration #  6     ecut=    70.00 Ry     beta= 0.30
     Davidson diagonalization with overlap
     ethr =  1.75E-10,  avg # of iterations =  3.0

     negative rho (up, down):  1.258E-03 0.000E+00

     total cpu time spent up to now is    78618.7 secs

     total energy              =    -756.61297426 Ry
     Harris-Foulkes estimate   =    -756.61297422 Ry
     estimated scf accuracy    <       0.00000008 Ry

     iteration #  7     ecut=    70.00 Ry     beta= 0.30
     Davidson diagonalization with overlap
     ethr =  3.87E-11,  avg # of iterations =  2.0

     negative rho (up, down):  1.258E-03 0.000E+00

     total cpu time spent up to now is    78765.3 secs

     total energy              =    -756.61297427 Ry
     Harris-Foulkes estimate   =    -756.61297427 Ry
     estimated scf accuracy    <       0.00000001 Ry

     iteration #  8     ecut=    70.00 Ry     beta= 0.30
     Davidson diagonalization with overlap
     ethr =  7.07E-12,  avg # of iterations =  2.5

     negative rho (up, down):  1.256E-03 0.000E+00

     total cpu time spent up to now is    78913.9 secs

     End of self-consistent calculation

          k = 0.0000 0.0000 0.0000 ( 87777 PWs)   bands (ev):

   -64.3438 -38.5082 -38.3409 -38.0448 -19.5728 -18.7442 -18.7019 -18.6902
   -18.6736 -18.6679 -18.1654 -16.9008 -16.8809 -16.8731 -16.7609 -16.7527
   -16.4394 -16.0034 -15.9887 -15.9732 -15.8128 -15.8051 -14.9387 -13.8616
   -13.8089 -13.7922 -13.6910 -13.6713 -13.1881 -12.8350 -12.8249 -12.8162
   -12.5335 -12.5261 -11.9997 -11.4821 -11.4695 -11.4573 -11.1618 -11.1609
   -10.0466  -9.1389  -9.1349  -9.0669  -9.0530  -9.0405  -9.0098  -9.0024
    -8.9907  -8.9680  -8.9387  -8.5063  -8.4979  -7.7661  -7.6833  -7.6828
    -7.6141  -7.6068  -7.2224  -7.2131  -6.8320  -6.7213  -6.6769  -6.6435
    -6.6421  -6.6098  -6.3775  -6.3735  -6.3465  -6.3367  -6.3325  -6.3234
    -6.3030  -6.2679  -6.2627  -6.1508  -5.3669  -5.3605  -4.7912  -4.7479
    -4.6971  -4.6573  -4.6184  -4.5766  -4.4845  -4.4810  -4.4142  -4.1800
    -3.8154  -3.7810  -3.6767  -3.6575  -3.6116  -3.4821  -3.4261  -3.4189
    -2.9650  -2.5903  -2.5215  -1.6614  -1.6270  -1.6064  -1.5091  -1.4761
    -0.9803   0.0552   0.2233   1.0475   1.1785   1.2129   1.2193   1.4348
     1.4737   1.9363   2.2913   2.3698   2.8606   3.0353   3.0790   3.0982
     3.1567   3.2075   3.8410   4.0338   4.0812   4.0942   4.1139

          k = 0.0000-0.5774 0.0000 ( 87818 PWs)   bands (ev):

   -64.3438 -38.5082 -38.3409 -38.0448 -19.4006 -19.2844 -18.9412 -18.7598
   -18.0381 -17.9813 -17.9610 -17.7461 -17.4948 -17.2809 -16.6460 -16.6117
   -16.5045 -16.1523 -15.3291 -15.3099 -15.1680 -15.1089 -14.9038 -14.8057
   -14.7970 -14.4739 -13.9767 -13.6006 -13.3972 -12.9219 -12.5058 -12.4571
   -12.2211 -12.1794 -11.8663 -11.4617 -11.0886 -11.0703 -10.8406 -10.5084
   -10.2748 -10.1942 -10.0811  -9.8713  -9.8692  -9.2456  -8.9816  -8.7835
    -8.6820  -8.6818  -8.5749  -8.3286  -7.9975  -7.6568  -7.5978  -7.4794
    -7.4451  -7.3739  -7.2850  -7.2288  -7.0760  -7.0357  -6.9216  -6.8476
    -6.7844  -6.7700  -6.6773  -6.3677  -6.3530  -5.9606  -5.9367  -5.8532
    -5.8340  -5.8284  -5.7573  -5.6798  -5.6300  -5.5631  -5.5178  -5.3463
    -5.2424  -5.0499  -4.7678  -4.4314  -4.3408  -4.3084  -4.3059  -4.2552
    -4.0881  -4.0076  -3.6617  -3.2921  -3.2115  -3.0905  -2.8578  -2.7783
    -2.7739  -2.6565  -2.6202  -2.5672  -2.1236  -2.0833  -1.8886  -1.1491
    -0.9162   0.0993   0.2296   0.9657   1.0743   1.3995   1.7370   1.9027
     1.9260   1.9974   2.0592   2.3467   2.4270   2.5770   2.6785   2.8334
     3.1849   3.2579   3.5348   3.8279   3.8338   4.2100   4.2112

          k = 0.5000-0.2887 0.0000 ( 87818 PWs)   bands (ev):

   -64.3438 -38.5083 -38.3409 -38.0448 -19.3978 -19.2910 -18.9273 -18.7708
   -18.0316 -17.9754 -17.9728 -17.7536 -17.4942 -17.2667 -16.6392 -16.6147
   -16.5173 -16.1551 -15.3183 -15.3027 -15.1741 -15.1102 -14.9037 -14.8148
   -14.7978 -14.4904 -13.9470 -13.5945 -13.3849 -12.9427 -12.5023 -12.4714
   -12.2594 -12.1673 -11.8558 -11.4430 -11.0763 -11.0590 -10.8544 -10.5128
   -10.2736 -10.1921 -10.1023  -9.8668  -9.8479  -9.2579  -8.9892  -8.7885
    -8.6975  -8.6722  -8.5561  -8.3375  -8.0046  -7.6497  -7.5855  -7.4767
    -7.4242  -7.3818  -7.2736  -7.2483  -7.0817  -7.0289  -6.9120  -6.8332
    -6.7999  -6.7848  -6.6749  -6.3695  -6.3425  -5.9660  -5.9413  -5.8671
    -5.8465  -5.7993  -5.7506  -5.6815  -5.6655  -5.5906  -5.5314  -5.3601
    -5.1823  -5.0302  -4.7626  -4.4110  -4.3527  -4.3141  -4.2940  -4.2491
    -4.1351  -3.9633  -3.6612  -3.3312  -3.1909  -3.1816  -2.8285  -2.7818
    -2.7456  -2.6488  -2.6032  -2.5412  -2.1643  -2.1354  -1.8064  -1.1322
    -0.9053   0.0175   0.2110   1.0378   1.1044   1.4496   1.5789   1.8811
     1.9521   2.0278   2.1979   2.2820   2.4132   2.5874   2.6628   2.7730
     3.1847   3.2584   3.5462   3.7926   3.8532   4.2107   4.2230

          k =-0.5000-0.2887 0.0000 ( 87818 PWs)   bands (ev):

   -64.3438 -38.5083 -38.3409 -38.0448 -19.3977 -19.2910 -18.9273 -18.7709
   -18.0316 -17.9754 -17.9728 -17.7536 -17.4942 -17.2667 -16.6392 -16.6147
   -16.5173 -16.1551 -15.3183 -15.3027 -15.1741 -15.1103 -14.9037 -14.8149
   -14.7977 -14.4905 -13.9470 -13.5945 -13.3849 -12.9428 -12.5023 -12.4714
   -12.2595 -12.1672 -11.8558 -11.4430 -11.0763 -11.0589 -10.8544 -10.5128
   -10.2736 -10.1921 -10.1023  -9.8668  -9.8479  -9.2579  -8.9892  -8.7885
    -8.6975  -8.6722  -8.5560  -8.3375  -8.0046  -7.6497  -7.5855  -7.4767
    -7.4241  -7.3818  -7.2735  -7.2483  -7.0817  -7.0289  -6.9120  -6.8332
    -6.7999  -6.7849  -6.6749  -6.3695  -6.3425  -5.9661  -5.9413  -5.8672
    -5.8465  -5.7993  -5.7505  -5.6815  -5.6656  -5.5906  -5.5314  -5.3601
    -5.1822  -5.0302  -4.7626  -4.4110  -4.3528  -4.3141  -4.2939  -4.2491
    -4.1352  -3.9632  -3.6612  -3.3312  -3.1910  -3.1815  -2.8284  -2.7818
    -2.7456  -2.6488  -2.6033  -2.5412  -2.1643  -2.1355  -1.8063  -1.1322
    -0.9054   0.0175   0.2110   1.0377   1.1044   1.4497   1.5789   1.8811
     1.9521   2.0278   2.1979   2.2822   2.4132   2.5874   2.6629   2.7728
     3.1846   3.2584   3.5462   3.7926   3.8532   4.2108   4.2230

     the Fermi energy is     0.0300 ev

!    total energy              =    -756.61297426 Ry
     Harris-Foulkes estimate   =    -756.61297427 Ry
     estimated scf accuracy    <          3.2E-09 Ry

     The total energy is the sum of the following terms:

     one-electron contribution =   -2480.90830523 Ry
     hartree contribution      =    1286.86680918 Ry
     xc contribution           =    -249.14975611 Ry
     ewald contribution        =     686.71782574 Ry
     DFT-D3 Dispersion         =      -0.13962832 Ry
     smearing contrib. (-TS)   =       0.00008047 Ry

     convergence has been achieved in   8 iterations

     negative rho (up, down):  1.256E-03 0.000E+00

     Forces acting on atoms (cartesian axes, Ry/au):

     atom    1 type  1   force =     0.00000587    0.00096102    0.00030806
     atom    2 type  2   force =    -0.00000091   -0.00106394   -0.00034274
     atom    3 type  3   force =    -0.00001826   -0.00021737   -0.00019847
     atom    4 type  4   force =     0.00039103   -0.00053892   -0.00219602
     atom    5 type  4   force =    -0.00329369   -0.00204769   -0.00705175
     atom    6 type  4   force =     0.00036404   -0.00139447    0.00125842
     atom    7 type  4   force =     0.00415607   -0.00002073   -0.01079010
     atom    8 type  4   force =    -0.00310158    0.00204156   -0.00108469
     atom    9 type  4   force =    -0.00682397   -0.00092558   -0.00221409
     atom   10 type  4   force =     0.00000255   -0.00051052    0.00015018
     atom   11 type  4   force =    -0.00000210   -0.00268906   -0.00012986
     atom   12 type  4   force =    -0.00084810    0.00067275    0.00021386
     atom   13 type  4   force =    -0.00260694   -0.00156027   -0.00014978
     atom   14 type  4   force =    -0.00000085    0.00825199   -0.00104933
     atom   15 type  4   force =     0.00001147   -0.01019853    0.00350644
     atom   16 type  4   force =    -0.00947133   -0.01194243    0.00240320
     atom   17 type  4   force =     0.00013895    0.00005734    0.00009336
     atom   18 type  4   force =    -0.00873203   -0.01424130    0.02204462
     atom   19 type  4   force =    -0.00032317   -0.00021432   -0.00063824
     atom   20 type  4   force =    -0.02901478   -0.00157435   -0.00797184
     atom   21 type  4   force =     0.00016543    0.00265801    0.00116001
     atom   22 type  4   force =     0.00085292    0.00067209    0.00021121
     atom   23 type  4   force =     0.00260253   -0.00155896   -0.00014947
     atom   24 type  4   force =    -0.00039043   -0.00053678   -0.00219769
     atom   25 type  4   force =     0.00328323   -0.00203078   -0.00704992
     atom   26 type  4   force =     0.00943257   -0.01191745    0.00240465
     atom   27 type  4   force =     0.00016710   -0.00009098    0.00003130
     atom   28 type  4   force =    -0.00022772    0.00015134    0.00001217
     atom   29 type  4   force =     0.00059550   -0.00042375    0.00008336
     atom   30 type  4   force =    -0.00005634   -0.00015481    0.00047601
     atom   31 type  4   force =    -0.01742763    0.02518813   -0.00117112
     atom   32 type  4   force =    -0.00289678    0.00186338   -0.00277530
     atom   33 type  4   force =     0.00005338    0.00294412   -0.00000951
     atom   34 type  4   force =     0.00172270   -0.00121589    0.00147359
     atom   35 type  4   force =    -0.00035436   -0.00139821    0.00126064
     atom   36 type  4   force =    -0.00416849   -0.00003254   -0.01078249
     atom   37 type  4   force =     0.00870686   -0.01425973    0.02203117
     atom   38 type  4   force =     0.00009012   -0.00007353   -0.00059962
     atom   39 type  4   force =    -0.00037219   -0.00075126    0.00007942
     atom   40 type  4   force =     0.00003110    0.00011277    0.00044581
     atom   41 type  4   force =     0.00000272    0.01012838    0.01669836
     atom   42 type  4   force =     0.00000490   -0.00228964   -0.00614528
     atom   43 type  4   force =    -0.00005472    0.00295528   -0.00001254
     atom   44 type  4   force =    -0.00172771   -0.00122315    0.00147301
     atom   45 type  4   force =     0.00000096   -0.00086391   -0.00020015
     atom   46 type  4   force =     0.00000044    0.00007566    0.00116423
     atom   47 type  4   force =     0.00309911    0.00204030   -0.00108805
     atom   48 type  4   force =     0.00683585   -0.00092032   -0.00220710
     atom   49 type  4   force =     0.02905468   -0.00158123   -0.00798403
     atom   50 type  4   force =    -0.00017747    0.00267279    0.00115783
     atom   51 type  4   force =     0.01742917    0.02516424   -0.00118405
     atom   52 type  4   force =     0.00289027    0.00185125   -0.00276768

     Total force =     0.002268     Total SCF correction =     0.000147

     number of scf cycles    =  50
     number of bfgs steps    =  49

     energy   old            =    -756.6129558502 Ry
     energy   new            =    -756.6129742638 Ry

     CASE: energy  _new < energy  _old

     new trust radius        =       0.0150057066 bohr
     new conv_thr            =       0.0000000100 Ry


ATOMIC_POSITIONS (angstrom)
H1       2.465276151   4.946162175   3.078002731
H2       2.465319934   5.704254321   3.334825004
V        2.465411265   5.800476217   1.324885114
C        0.000000000   0.000000000   0.000000000    0   0   0
C        0.000000000   1.423340089   0.000000000    0   0   0
C       -1.232648675   2.135010133   0.000000000    0   0   0
C       -1.232648675   3.558350222   0.000000000    0   0   0
C       -2.465297350   4.270020266   0.000000000    0   0   0
C       -2.465297350   5.693360355   0.000000000    0   0   0
C       -3.697946025   6.405030399   0.000000000    0   0   0
C       -3.697946025   7.828370488   0.000000000    0   0   0
C       -4.930594700   8.540040532   0.000000000    0   0   0
C       -4.930594700   9.963380621   0.000000000    0   0   0
C        2.465297350   0.000000000   0.000000000    0   0   0
C        2.465297350   1.423340089   0.000000000    0   0   0
C        1.232648675   2.135010133   0.000000000    0   0   0
C        1.226515520   3.545797621   0.088760561
C        0.000000000   4.270020266   0.000000000    0   0   0
C       -0.020618990   5.692343344   0.027331552
C       -1.232648675   6.405030399   0.000000000    0   0   0
C       -1.232648675   7.828370488   0.000000000    0   0   0
C       -2.465297350   8.540040532   0.000000000    0   0   0
C       -2.465297350   9.963380621   0.000000000    0   0   0
C        4.930594700   0.000000000   0.000000000    0   0   0
C        4.930594700   1.423340089   0.000000000    0   0   0
C        3.697946025   2.135010133   0.000000000    0   0   0
C        3.704165031   3.545760117   0.088755680
C        2.465222043   4.185996082   0.358273758
C        1.160812808   6.436973189   0.173900213
C        1.224039243   7.837657095   0.040515465
C        0.000000000   8.540040532   0.000000000    0   0   0
C        0.000000000   9.963380621   0.000000000    0   0   0
C        7.395892050   0.000000000   0.000000000    0   0   0
C        7.395892050   1.423340089   0.000000000    0   0   0
C        6.163243375   2.135010133   0.000000000    0   0   0
C        6.163243375   3.558350222   0.000000000    0   0   0
C        4.930594700   4.270020266   0.000000000    0   0   0
C        4.951223378   5.692333115   0.027232217
C        3.769752234   6.436962257   0.173656064
C        3.706554651   7.837667524   0.040427509
C        2.465297350   8.540040532   0.000000000    0   0   0
C        2.465297350   9.963380621   0.000000000    0   0   0
C        9.861189400   0.000000000   0.000000000    0   0   0
C        9.861189400   1.423340089   0.000000000    0   0   0
C        8.628540725   2.135010133   0.000000000    0   0   0
C        8.628540725   3.558350222   0.000000000    0   0   0
C        7.395892050   4.270020266   0.000000000    0   0   0
C        7.395892050   5.693360355   0.000000000    0   0   0
C        6.163243375   6.405030399   0.000000000    0   0   0
C        6.163243375   7.828370488   0.000000000    0   0   0
C        4.930594700   8.540040532   0.000000000    0   0   0
C        4.930594700   9.963380621   0.000000000    0   0   0



     Writing output data file gr-12.save/
     NEW-OLD atomic charge density approx. for the potential

     Check: negative core charge=   -0.000002

     negative rho (up, down):  1.252E-03 0.000E+00

     Writing output data file gr-12.save/

     init_run     :    106.04s CPU    107.76s WALL (       1 calls)
     electrons    :  73342.10s CPU  74218.67s WALL (      50 calls)
     update_pot   :    919.76s CPU    922.05s WALL (      50 calls)
     forces       :   3443.30s CPU   3488.15s WALL (      50 calls)

     Called by init_run:
     wfcinit      :     82.79s CPU     83.28s WALL (       1 calls)
     potinit      :      6.85s CPU      6.91s WALL (       1 calls)
     hinit0       :     11.28s CPU     11.35s WALL (       1 calls)

     Called by electrons:
     c_bands      :  60976.29s CPU  61314.54s WALL (     451 calls)
     sum_band     :   9759.86s CPU  10045.86s WALL (     451 calls)
     v_of_rho     :    440.33s CPU    451.16s WALL (     495 calls)
     newd         :   2228.79s CPU   2495.69s WALL (     495 calls)
     mix_rho      :     71.24s CPU     72.64s WALL (     451 calls)

     Called by c_bands:
     init_us_2    :    189.34s CPU    189.78s WALL (    3812 calls)
     cegterg      :  60551.12s CPU  60886.97s WALL (    1804 calls)

     Called by sum_band:
     sum_band:bec :      1.43s CPU      1.44s WALL (    1804 calls)
     addusdens    :   3129.88s CPU   3380.99s WALL (     451 calls)

     Called by *egterg:
     h_psi        :  29018.69s CPU  29236.97s WALL (    8790 calls)
     s_psi        :   9774.73s CPU   9785.86s WALL (    8790 calls)
     g_psi        :     33.83s CPU     33.94s WALL (    6982 calls)
     cdiaghg      :    584.27s CPU    584.74s WALL (    8562 calls)

     Called by h_psi:
     h_psi:pot    :  28976.53s CPU  29156.33s WALL (    8790 calls)
     h_psi:calbec :   9749.50s CPU   9760.32s WALL (    8790 calls)
     vloc_psi     :   9457.78s CPU   9617.03s WALL (    8790 calls)
     add_vuspsi   :   9769.13s CPU   9778.94s WALL (    8790 calls)

     General routines
     calbec       :  15927.68s CPU  15945.28s WALL (   11394 calls)
     fft          :    456.59s CPU    470.68s WALL (    6942 calls)
     ffts         :     15.75s CPU     16.19s WALL (     946 calls)
     fftw         :  10210.07s CPU  10381.55s WALL ( 1314650 calls)
     interpolate  :     43.35s CPU     44.40s WALL (     495 calls)
     davcio       :      0.00s CPU      0.11s WALL (       4 calls)

     Parallel routines
     fft_scatt_xy :   2144.91s CPU   2178.13s WALL ( 1322538 calls)
     fft_scatt_yz :   3257.11s CPU   3364.02s WALL ( 1322538 calls)

     PWSCF        :     21h40m CPU     21h56m WALL


   This run was terminated on:  22:11:43  20May2022            

=------------------------------------------------------------------------------=
   JOB DONE.
=------------------------------------------------------------------------------=
