
     Program PWSCF v.6.4.1 starts on 31Aug2022 at  3:25:21 

     This program is part of the open-source Quantum ESPRESSO suite
     for quantum simulation of materials; please cite
         "P. Giannozzi et al., J. Phys.:Condens. Matter 21 395502 (2009);
         "P. Giannozzi et al., J. Phys.:Condens. Matter 29 465901 (2017);
          URL http://www.quantum-espresso.org", 
     in publications or presentations arising from this work. More details at
     http://www.quantum-espresso.org/quote

     Parallel version (MPI), running on     6 processors

     MPI processes distributed on     1 nodes
     R & G space division:  proc/nbgrp/npool/nimage =       6
     Reading input from distance-4.5.in

     Current dimensions of program PWSCF are:
     Max number of different atomic species (ntypx) = 10
     Max number of k-points (npk) =  40000
     Max angular momentum in pseudopotentials (lmaxx) =  3

     IMPORTANT: XC functional enforced from input :
     Exchange-correlation      = RVV10 ( 1  4 13  4 3 0)
     Any further DFT definition will be discarded
     Please, verify this is what you really want

               file H.pbe-rrkjus.UPF: wavefunction(s)  1S renormalized
               file V.pbe-spnl-rrkjus_psl.1.0.0.UPF: wavefunction(s)  3P 3D renormalized

     Subspace diagonalization in iterative solution of the eigenvalue problem:
     a serial algorithm will be used


     Parallelization info
     --------------------
     sticks:   dense  smooth     PW     G-vecs:    dense   smooth      PW
     Min        3051    1746    432               270999   117096   14629
     Max        3053    1747    437               271001   117099   14630
     Sum       18313   10477   2611              1626001   702581   87777



     bravais-lattice index     =            4
     lattice parameter (alat)  =      23.2937  a.u.
     unit-cell volume          =    8879.8548 (a.u.)^3
     number of atoms/cell      =           52
     number of atomic types    =            3
     number of electrons       =       211.00
     number of Kohn-Sham states=          127
     kinetic-energy cutoff     =      70.0000  Ry
     charge density cutoff     =     490.0000  Ry
     convergence threshold     =      1.0E-06
     mixing beta               =       0.7000
     number of iterations used =            8  plain     mixing
     Exchange-correlation      = RVV10 ( 1  4 13  4 3 0)

     celldm(1)=  23.293684  celldm(2)=   0.000000  celldm(3)=   0.811261
     celldm(4)=   0.000000  celldm(5)=   0.000000  celldm(6)=   0.000000

     crystal axes: (cart. coord. in units of alat)
               a(1) = (   1.000000   0.000000   0.000000 )  
               a(2) = (  -0.500000   0.866025   0.000000 )  
               a(3) = (   0.000000   0.000000   0.811261 )  

     reciprocal axes: (cart. coord. in units 2 pi/alat)
               b(1) = (  1.000000  0.577350 -0.000000 )  
               b(2) = (  0.000000  1.154701  0.000000 )  
               b(3) = (  0.000000 -0.000000  1.232649 )  


     PseudoPot. # 1 for H  read from file:
     /home/cristian/Escritorio/Proyecto_Grafeno/pseudopotenciales/H.pbe-rrkjus.UPF
     MD5 check sum: 7cc9d459525c9a0585f487a71c3c9563
     Pseudo is Ultrasoft, Zval =  1.0
     Generated by new atomic code, or converted to UPF format
     Using radial grid of 1061 points,  2 beta functions with: 
                l(1) =   0
                l(2) =   0
     Q(r) pseudized with 0 coefficients 


     PseudoPot. # 2 for C  read from file:
     /home/cristian/Escritorio/Proyecto_Grafeno/pseudopotenciales/C.pbe-n-rrkjus_psl.1.0.0.UPF
     MD5 check sum: 1fdd950c42eb37d8afe3dd2f8d12311e
     Pseudo is Ultrasoft + core correction, Zval =  4.0
     Generated using "atomic" code by A. Dal Corso v.6.3MaX
     Using radial grid of 1073 points,  4 beta functions with: 
                l(1) =   0
                l(2) =   0
                l(3) =   1
                l(4) =   1
     Q(r) pseudized with 0 coefficients 


     PseudoPot. # 3 for V  read from file:
     /home/cristian/Escritorio/Proyecto_Grafeno/pseudopotenciales/V.pbe-spnl-rrkjus_psl.1.0.0.UPF
     MD5 check sum: 79b3eb63147daf0b665d9f1bcc691206
     Pseudo is Ultrasoft + core correction, Zval = 13.0
     Generated using "atomic" code by A. Dal Corso v.6.2.2
     Using radial grid of 1181 points,  6 beta functions with: 
                l(1) =   0
                l(2) =   0
                l(3) =   1
                l(4) =   1
                l(5) =   2
                l(6) =   2
     Q(r) pseudized with 0 coefficients 


     vdW kernel table read from file rVV10_kernel_table
     MD5 check sum: b8e2538accc0c0b3206b45ba4daaba6c

     atomic species   valence    mass     pseudopotential
        H              1.00     1.00794     H ( 1.00)
        C              4.00    12.01070     C ( 1.00)
        V             13.00    50.94150     V ( 1.00)

     No symmetry found


                                    s                        frac. trans.

      isym =  1     identity                                     

 cryst.   s( 1) = (     1          0          0      )
                  (     0          1          0      )
                  (     0          0          1      )

 cart.    s( 1) = (  1.0000000  0.0000000  0.0000000 )
                  (  0.0000000  1.0000000  0.0000000 )
                  (  0.0000000  0.0000000  1.0000000 )


     point group C_1 (1)    
     there are  1 classes
     the character table:

       E    
A      1.00

     the symmetry operations in each class and the name of the first element:

     E        1
          identity                                               

   Cartesian axes

     site n.     atom                  positions (alat units)
         1           H   tau(   1) = (   0.2194937   0.4330127   0.3650675  )
         2           H   tau(   2) = (   0.2805063   0.4330127   0.3650675  )
         3           C   tau(   3) = (   0.0000000   0.0000000   0.0000000  )
         4           C   tau(   4) = (   0.0000000   0.1154701   0.0000000  )
         5           C   tau(   5) = (  -0.1000000   0.1732051   0.0000000  )
         6           C   tau(   6) = (  -0.1000000   0.2886751   0.0000000  )
         7           C   tau(   7) = (  -0.2000000   0.3464102   0.0000000  )
         8           C   tau(   8) = (  -0.2000000   0.4618802   0.0000000  )
         9           C   tau(   9) = (  -0.3000000   0.5196152   0.0000000  )
        10           C   tau(  10) = (  -0.3000000   0.6350853   0.0000000  )
        11           C   tau(  11) = (  -0.4000000   0.6928203   0.0000000  )
        12           C   tau(  12) = (  -0.4000000   0.8082904   0.0000000  )
        13           C   tau(  13) = (   0.2000000   0.0000000   0.0000000  )
        14           C   tau(  14) = (   0.2000000   0.1154701   0.0000000  )
        15           C   tau(  15) = (   0.1000000   0.1732051   0.0000000  )
        16           C   tau(  16) = (   0.1000000   0.2886751   0.0000000  )
        17           C   tau(  17) = (   0.0000000   0.3464102   0.0000000  )
        18           C   tau(  18) = (   0.0000000   0.4618802   0.0000000  )
        19           C   tau(  19) = (  -0.1000000   0.5196152   0.0000000  )
        20           C   tau(  20) = (  -0.1000000   0.6350853   0.0000000  )
        21           C   tau(  21) = (  -0.2000000   0.6928203   0.0000000  )
        22           C   tau(  22) = (  -0.2000000   0.8082904   0.0000000  )
        23           C   tau(  23) = (   0.4000000   0.0000000   0.0000000  )
        24           C   tau(  24) = (   0.4000000   0.1154701   0.0000000  )
        25           C   tau(  25) = (   0.3000000   0.1732051   0.0000000  )
        26           C   tau(  26) = (   0.3000000   0.2886751   0.0000000  )
        27           C   tau(  27) = (   0.2000000   0.3464102   0.0000000  )
        28           V   tau(  28) = (   0.2000000   0.4618802   0.0000000  )
        29           C   tau(  29) = (   0.1000000   0.5196152   0.0000000  )
        30           C   tau(  30) = (   0.1000000   0.6350853   0.0000000  )
        31           C   tau(  31) = (   0.0000000   0.6928203   0.0000000  )
        32           C   tau(  32) = (   0.0000000   0.8082904   0.0000000  )
        33           C   tau(  33) = (   0.6000000   0.0000000   0.0000000  )
        34           C   tau(  34) = (   0.6000000   0.1154701   0.0000000  )
        35           C   tau(  35) = (   0.5000000   0.1732051   0.0000000  )
        36           C   tau(  36) = (   0.5000000   0.2886751   0.0000000  )
        37           C   tau(  37) = (   0.4000000   0.3464102   0.0000000  )
        38           C   tau(  38) = (   0.4000000   0.4618802   0.0000000  )
        39           C   tau(  39) = (   0.3000000   0.5196152   0.0000000  )
        40           C   tau(  40) = (   0.3000000   0.6350853   0.0000000  )
        41           C   tau(  41) = (   0.2000000   0.6928203   0.0000000  )
        42           C   tau(  42) = (   0.2000000   0.8082904   0.0000000  )
        43           C   tau(  43) = (   0.8000000   0.0000000   0.0000000  )
        44           C   tau(  44) = (   0.8000000   0.1154701   0.0000000  )
        45           C   tau(  45) = (   0.7000000   0.1732051   0.0000000  )
        46           C   tau(  46) = (   0.7000000   0.2886751   0.0000000  )
        47           C   tau(  47) = (   0.6000000   0.3464102   0.0000000  )
        48           C   tau(  48) = (   0.6000000   0.4618802   0.0000000  )
        49           C   tau(  49) = (   0.5000000   0.5196152   0.0000000  )
        50           C   tau(  50) = (   0.5000000   0.6350853   0.0000000  )
        51           C   tau(  51) = (   0.4000000   0.6928203   0.0000000  )
        52           C   tau(  52) = (   0.4000000   0.8082904   0.0000000  )

   Crystallographic axes

     site n.     atom                  positions (cryst. coord.)
         1           H   tau(   1) = (  0.4694937  0.5000000  0.4500000  )
         2           H   tau(   2) = (  0.5305063  0.5000000  0.4500000  )
         3           C   tau(   3) = (  0.0000000  0.0000000  0.0000000  )
         4           C   tau(   4) = (  0.0666667  0.1333333  0.0000000  )
         5           C   tau(   5) = (  0.0000000  0.2000000  0.0000000  )
         6           C   tau(   6) = (  0.0666667  0.3333333  0.0000000  )
         7           C   tau(   7) = (  0.0000000  0.4000000  0.0000000  )
         8           C   tau(   8) = (  0.0666667  0.5333333  0.0000000  )
         9           C   tau(   9) = (  0.0000000  0.6000000  0.0000000  )
        10           C   tau(  10) = (  0.0666667  0.7333333  0.0000000  )
        11           C   tau(  11) = (  0.0000000  0.8000000  0.0000000  )
        12           C   tau(  12) = (  0.0666667  0.9333333  0.0000000  )
        13           C   tau(  13) = (  0.2000000  0.0000000  0.0000000  )
        14           C   tau(  14) = (  0.2666667  0.1333333  0.0000000  )
        15           C   tau(  15) = (  0.2000000  0.2000000  0.0000000  )
        16           C   tau(  16) = (  0.2666667  0.3333333  0.0000000  )
        17           C   tau(  17) = (  0.2000000  0.4000000  0.0000000  )
        18           C   tau(  18) = (  0.2666667  0.5333333  0.0000000  )
        19           C   tau(  19) = (  0.2000000  0.6000000  0.0000000  )
        20           C   tau(  20) = (  0.2666667  0.7333333  0.0000000  )
        21           C   tau(  21) = (  0.2000000  0.8000000  0.0000000  )
        22           C   tau(  22) = (  0.2666667  0.9333333  0.0000000  )
        23           C   tau(  23) = (  0.4000000  0.0000000  0.0000000  )
        24           C   tau(  24) = (  0.4666667  0.1333333  0.0000000  )
        25           C   tau(  25) = (  0.4000000  0.2000000  0.0000000  )
        26           C   tau(  26) = (  0.4666667  0.3333333  0.0000000  )
        27           C   tau(  27) = (  0.4000000  0.4000000  0.0000000  )
        28           V   tau(  28) = (  0.4666667  0.5333333  0.0000000  )
        29           C   tau(  29) = (  0.4000000  0.6000000  0.0000000  )
        30           C   tau(  30) = (  0.4666667  0.7333333  0.0000000  )
        31           C   tau(  31) = (  0.4000000  0.8000000  0.0000000  )
        32           C   tau(  32) = (  0.4666667  0.9333333  0.0000000  )
        33           C   tau(  33) = (  0.6000000  0.0000000  0.0000000  )
        34           C   tau(  34) = (  0.6666667  0.1333333  0.0000000  )
        35           C   tau(  35) = (  0.6000000  0.2000000  0.0000000  )
        36           C   tau(  36) = (  0.6666667  0.3333333  0.0000000  )
        37           C   tau(  37) = (  0.6000000  0.4000000  0.0000000  )
        38           C   tau(  38) = (  0.6666667  0.5333333  0.0000000  )
        39           C   tau(  39) = (  0.6000000  0.6000000  0.0000000  )
        40           C   tau(  40) = (  0.6666667  0.7333333  0.0000000  )
        41           C   tau(  41) = (  0.6000000  0.8000000  0.0000000  )
        42           C   tau(  42) = (  0.6666667  0.9333333  0.0000000  )
        43           C   tau(  43) = (  0.8000000  0.0000000  0.0000000  )
        44           C   tau(  44) = (  0.8666667  0.1333333  0.0000000  )
        45           C   tau(  45) = (  0.8000000  0.2000000  0.0000000  )
        46           C   tau(  46) = (  0.8666667  0.3333333  0.0000000  )
        47           C   tau(  47) = (  0.8000000  0.4000000  0.0000000  )
        48           C   tau(  48) = (  0.8666667  0.5333333  0.0000000  )
        49           C   tau(  49) = (  0.8000000  0.6000000  0.0000000  )
        50           C   tau(  50) = (  0.8666667  0.7333333  0.0000000  )
        51           C   tau(  51) = (  0.8000000  0.8000000  0.0000000  )
        52           C   tau(  52) = (  0.8666667  0.9333333  0.0000000  )

     number of k points=     1  Marzari-Vanderbilt smearing, width (Ry)=  0.0010
                       cart. coord. in units 2pi/alat
        k(    1) = (   0.0000000   0.0000000   0.0000000), wk =   2.0000000

                       cryst. coord.
        k(    1) = (   0.0000000   0.0000000   0.0000000), wk =   2.0000000

     Dense  grid:  1626001 G-vectors     FFT dimensions: ( 180, 180, 135)

     Smooth grid:   702581 G-vectors     FFT dimensions: ( 125, 125, 108)

     Dynamical RAM for                 wfc:      28.36 MB

     Dynamical RAM for     wfc (w. buffer):      28.36 MB

     Dynamical RAM for           str. fact:      12.41 MB

     Dynamical RAM for           local pot:       0.00 MB

     Dynamical RAM for          nlocal pot:      92.46 MB

     Dynamical RAM for                qrad:      19.73 MB

     Dynamical RAM for          rho,v,vnew:      29.46 MB

     Dynamical RAM for               rhoin:       9.82 MB

     Dynamical RAM for            rho*nmix:      66.16 MB

     Dynamical RAM for           G-vectors:      16.40 MB

     Dynamical RAM for          h,s,v(r/c):      11.81 MB

     Dynamical RAM for          <psi|beta>:       0.80 MB

     Dynamical RAM for                 psi:     113.46 MB

     Dynamical RAM for                hpsi:     113.46 MB

     Dynamical RAM for                spsi:     113.46 MB

     Dynamical RAM for      wfcinit/wfcrot:      93.90 MB

     Dynamical RAM for           addusdens:     971.75 MB

     Estimated static dynamical RAM per process >     319.78 MB

     Estimated max dynamical RAM per process >       1.26 GB

     Estimated total dynamical RAM >       7.57 GB

     Check: negative core charge=   -0.000002

     Initial potential from superposition of free atoms

     starting charge  210.80465, renormalised to  211.00000

     negative rho (up, down):  9.137E-05 0.000E+00


---------------------------------------------------------------------------------
Carrying out rVV10 run using the following parameters:
Nqs =      20    Nr_points =    1024   r_max =   100.000
b_value =  6.30000    beta =  0.00901
     q_mesh =  0.00010000  0.00030000  0.00058939  0.00100810
               0.00161396  0.00249058  0.00375900  0.00559430
               0.00824984  0.01209221  0.01765183  0.02569619
               0.03733578  0.05417739  0.07854596  0.11380545
               0.16482331  0.23864234  0.34545298  0.50000000

Gradients computed in Reciprocal space

---------------------------------------------------------------------------------


     Starting wfcs are  208 randomized atomic wfcs

     total cpu time spent up to now is       48.5 secs

     Self-consistent Calculation

     iteration #  1     ecut=    70.00 Ry     beta= 0.70
     Davidson diagonalization with overlap
     ethr =  1.00E-02,  avg # of iterations =  3.0

     negative rho (up, down):  2.847E-03 0.000E+00

     total cpu time spent up to now is      117.0 secs

     total energy              =    -755.30202618 Ry
     Harris-Foulkes estimate   =    -760.47864495 Ry
     estimated scf accuracy    <       7.91376149 Ry

     iteration #  2     ecut=    70.00 Ry     beta= 0.70
     Davidson diagonalization with overlap
     ethr =  3.75E-03,  avg # of iterations =  7.0

     negative rho (up, down):  1.851E-02 0.000E+00

     total cpu time spent up to now is      185.4 secs

     total energy              =    -748.68895737 Ry
     Harris-Foulkes estimate   =    -761.23619244 Ry
     estimated scf accuracy    <      41.77647360 Ry

     iteration #  3     ecut=    70.00 Ry     beta= 0.70
     Davidson diagonalization with overlap
     ethr =  3.75E-03,  avg # of iterations =  5.0

     negative rho (up, down):  3.618E-03 0.000E+00

     total cpu time spent up to now is      271.3 secs

     total energy              =    -755.36295572 Ry
     Harris-Foulkes estimate   =    -759.75888574 Ry
     estimated scf accuracy    <      23.22017221 Ry

     iteration #  4     ecut=    70.00 Ry     beta= 0.70
     Davidson diagonalization with overlap
     ethr =  3.75E-03,  avg # of iterations =  5.0

     negative rho (up, down):  3.779E-02 0.000E+00

     total cpu time spent up to now is      325.1 secs

     total energy              =    -757.12107418 Ry
     Harris-Foulkes estimate   =    -757.74904105 Ry
     estimated scf accuracy    <       1.81773136 Ry

     iteration #  5     ecut=    70.00 Ry     beta= 0.70
     Davidson diagonalization with overlap
     ethr =  8.61E-04,  avg # of iterations =  6.0

     negative rho (up, down):  5.928E-02 0.000E+00

     total cpu time spent up to now is      382.0 secs

     total energy              =    -757.28252074 Ry
     Harris-Foulkes estimate   =    -757.35873765 Ry
     estimated scf accuracy    <       0.29805901 Ry

     iteration #  6     ecut=    70.00 Ry     beta= 0.70
     Davidson diagonalization with overlap
     ethr =  1.41E-04,  avg # of iterations =  3.0

     negative rho (up, down):  5.383E-02 0.000E+00

     total cpu time spent up to now is      434.8 secs

     total energy              =    -757.29666518 Ry
     Harris-Foulkes estimate   =    -757.32865508 Ry
     estimated scf accuracy    <       0.20785721 Ry

     iteration #  7     ecut=    70.00 Ry     beta= 0.70
     Davidson diagonalization with overlap
     ethr =  9.85E-05,  avg # of iterations =  2.0

     negative rho (up, down):  3.807E-02 0.000E+00

     total cpu time spent up to now is      485.3 secs

     total energy              =    -757.30411177 Ry
     Harris-Foulkes estimate   =    -757.31617733 Ry
     estimated scf accuracy    <       0.11629175 Ry

     iteration #  8     ecut=    70.00 Ry     beta= 0.70
     Davidson diagonalization with overlap
     ethr =  5.51E-05,  avg # of iterations =  3.0

     negative rho (up, down):  2.854E-02 0.000E+00

     total cpu time spent up to now is      536.4 secs

     total energy              =    -757.31466365 Ry
     Harris-Foulkes estimate   =    -757.31378076 Ry
     estimated scf accuracy    <       0.04187602 Ry

     iteration #  9     ecut=    70.00 Ry     beta= 0.70
     Davidson diagonalization with overlap
     ethr =  1.98E-05,  avg # of iterations =  4.0

     negative rho (up, down):  3.149E-02 0.000E+00

     total cpu time spent up to now is      593.1 secs

     total energy              =    -757.32161764 Ry
     Harris-Foulkes estimate   =    -757.32316873 Ry
     estimated scf accuracy    <       0.02401580 Ry

     iteration # 10     ecut=    70.00 Ry     beta= 0.70
     Davidson diagonalization with overlap
     ethr =  1.14E-05,  avg # of iterations =  3.0

     negative rho (up, down):  3.538E-02 0.000E+00

     total cpu time spent up to now is      646.1 secs

     total energy              =    -757.32103935 Ry
     Harris-Foulkes estimate   =    -757.32496750 Ry
     estimated scf accuracy    <       0.02170893 Ry

     iteration # 11     ecut=    70.00 Ry     beta= 0.70
     Davidson diagonalization with overlap
     ethr =  1.03E-05,  avg # of iterations =  2.0

     negative rho (up, down):  3.283E-02 0.000E+00

     total cpu time spent up to now is      697.8 secs

     total energy              =    -757.32444733 Ry
     Harris-Foulkes estimate   =    -757.32335873 Ry
     estimated scf accuracy    <       0.01567326 Ry

     iteration # 12     ecut=    70.00 Ry     beta= 0.70
     Davidson diagonalization with overlap
     ethr =  7.43E-06,  avg # of iterations =  4.0

     negative rho (up, down):  3.299E-02 0.000E+00

     total cpu time spent up to now is      754.1 secs

     total energy              =    -757.32612534 Ry
     Harris-Foulkes estimate   =    -757.32539500 Ry
     estimated scf accuracy    <       0.00216597 Ry

     iteration # 13     ecut=    70.00 Ry     beta= 0.70
     Davidson diagonalization with overlap
     ethr =  1.03E-06,  avg # of iterations =  4.0

     negative rho (up, down):  3.339E-02 0.000E+00

     total cpu time spent up to now is      811.2 secs

     total energy              =    -757.32598129 Ry
     Harris-Foulkes estimate   =    -757.32633854 Ry
     estimated scf accuracy    <       0.00030524 Ry

     iteration # 14     ecut=    70.00 Ry     beta= 0.70
     Davidson diagonalization with overlap
     ethr =  1.45E-07,  avg # of iterations =  4.0

     negative rho (up, down):  3.354E-02 0.000E+00

     total cpu time spent up to now is      866.0 secs

     total energy              =    -757.32631240 Ry
     Harris-Foulkes estimate   =    -757.32604826 Ry
     estimated scf accuracy    <       0.00017486 Ry

     iteration # 15     ecut=    70.00 Ry     beta= 0.70
     Davidson diagonalization with overlap
     ethr =  8.29E-08,  avg # of iterations =  3.0

     negative rho (up, down):  3.377E-02 0.000E+00

     total cpu time spent up to now is      918.6 secs

     total energy              =    -757.32635081 Ry
     Harris-Foulkes estimate   =    -757.32633032 Ry
     estimated scf accuracy    <       0.00007080 Ry

     iteration # 16     ecut=    70.00 Ry     beta= 0.70
     Davidson diagonalization with overlap
     ethr =  3.36E-08,  avg # of iterations =  3.0

     negative rho (up, down):  3.384E-02 0.000E+00

     total cpu time spent up to now is      969.7 secs

     total energy              =    -757.32635388 Ry
     Harris-Foulkes estimate   =    -757.32635650 Ry
     estimated scf accuracy    <       0.00001577 Ry

     iteration # 17     ecut=    70.00 Ry     beta= 0.70
     Davidson diagonalization with overlap
     ethr =  7.47E-09,  avg # of iterations =  2.0

     negative rho (up, down):  3.385E-02 0.000E+00

     total cpu time spent up to now is     1020.9 secs

     total energy              =    -757.32635329 Ry
     Harris-Foulkes estimate   =    -757.32635578 Ry
     estimated scf accuracy    <       0.00000533 Ry

     iteration # 18     ecut=    70.00 Ry     beta= 0.70
     Davidson diagonalization with overlap
     ethr =  2.53E-09,  avg # of iterations =  2.0

     negative rho (up, down):  3.387E-02 0.000E+00

     total cpu time spent up to now is     1072.9 secs

     total energy              =    -757.32635436 Ry
     Harris-Foulkes estimate   =    -757.32635412 Ry
     estimated scf accuracy    <       0.00000333 Ry

     iteration # 19     ecut=    70.00 Ry     beta= 0.70
     Davidson diagonalization with overlap
     ethr =  1.58E-09,  avg # of iterations =  2.0

     negative rho (up, down):  3.389E-02 0.000E+00

     total cpu time spent up to now is     1123.4 secs

     total energy              =    -757.32635484 Ry
     Harris-Foulkes estimate   =    -757.32635478 Ry
     estimated scf accuracy    <       0.00000373 Ry

     iteration # 20     ecut=    70.00 Ry     beta= 0.70
     Davidson diagonalization with overlap
     ethr =  1.58E-09,  avg # of iterations =  1.0

     negative rho (up, down):  3.389E-02 0.000E+00

     total cpu time spent up to now is     1173.5 secs

     total energy              =    -757.32635472 Ry
     Harris-Foulkes estimate   =    -757.32635504 Ry
     estimated scf accuracy    <       0.00000227 Ry

     iteration # 21     ecut=    70.00 Ry     beta= 0.70
     Davidson diagonalization with overlap
     ethr =  1.08E-09,  avg # of iterations =  1.0

     negative rho (up, down):  3.390E-02 0.000E+00

     total cpu time spent up to now is     1223.5 secs

     End of self-consistent calculation

          k = 0.0000 0.0000 0.0000 ( 87777 PWs)   bands (ev):

   -62.7611 -37.8611 -37.8609 -36.4931 -19.6250 -18.7823 -18.7822 -18.7125
   -18.6700 -18.6696 -18.2277 -16.9299 -16.9284 -16.9283 -16.7867 -16.7866
   -16.5106 -16.0715 -16.0715 -15.9828 -15.8258 -15.8256 -15.0782 -13.8788
   -13.8726 -13.8725 -13.8593 -13.8592 -13.1370 -12.9141 -12.9140 -12.8939
   -12.5035 -12.5034 -12.1053 -11.6389 -11.6388 -11.5162 -11.1356 -11.1355
   -10.1457  -9.3323  -9.3322  -9.2538  -9.1755  -9.1754  -9.0897  -9.0620
    -9.0620  -9.0481  -8.4619  -8.4619  -7.8911  -7.8910  -7.8581  -7.7760
    -7.6747  -7.2508  -7.2506  -6.9258  -6.9246  -6.8892  -6.7247  -6.6837
    -6.6832  -6.6773  -6.5880  -6.5880  -6.5427  -6.4313  -6.4312  -6.3888
    -6.3844  -6.3842  -6.3308  -6.2780  -5.2572  -5.2571  -5.1172  -5.1165
    -4.9422  -4.9420  -4.8333  -4.7451  -4.6001  -4.5839  -4.5836  -4.2258
    -3.9610  -3.9608  -3.7238  -3.7238  -3.6371  -3.6245  -3.4966  -3.4965
    -2.8842  -2.2282  -2.2280  -2.1990  -2.1989  -1.7020  -1.6747  -1.6745
    -0.5398  -0.1308  -0.1307   0.8994   1.0842   1.0900   1.0902   1.8272
     2.0830   2.0831   2.6303   2.9300   2.9303   2.9940   3.3373   3.5201
     3.6229   3.7651   3.7771   3.8271   3.9970   4.0352   4.3785

     occupation numbers 
     1.0000   1.0000   1.0000   1.0000   1.0000   1.0000   1.0000   1.0000
     1.0000   1.0000   1.0000   1.0000   1.0000   1.0000   1.0000   1.0000
     1.0000   1.0000   1.0000   1.0000   1.0000   1.0000   1.0000   1.0000
     1.0000   1.0000   1.0000   1.0000   1.0000   1.0000   1.0000   1.0000
     1.0000   1.0000   1.0000   1.0000   1.0000   1.0000   1.0000   1.0000
     1.0000   1.0000   1.0000   1.0000   1.0000   1.0000   1.0000   1.0000
     1.0000   1.0000   1.0000   1.0000   1.0000   1.0000   1.0000   1.0000
     1.0000   1.0000   1.0000   1.0000   1.0000   1.0000   1.0000   1.0000
     1.0000   1.0000   1.0000   1.0000   1.0000   1.0000   1.0000   1.0000
     1.0000   1.0000   1.0000   1.0000   1.0000   1.0000   1.0000   1.0000
     1.0000   1.0000   1.0000   1.0000   1.0000   1.0000   1.0000   1.0000
     1.0000   1.0000   1.0000   1.0000   1.0000   1.0000   1.0000   1.0000
     1.0000   1.0000   1.0000   1.0000   1.0000   1.0000   1.0000   1.0000
     1.0000   0.2510   0.2490   0.0000   0.0000   0.0000   0.0000   0.0000
     0.0000   0.0000   0.0000   0.0000   0.0000   0.0000   0.0000   0.0000
     0.0000   0.0000   0.0000   0.0000   0.0000   0.0000   0.0000

     the Fermi energy is    -0.1341 ev

!    total energy              =    -757.32635467 Ry
     Harris-Foulkes estimate   =    -757.32635485 Ry
     estimated scf accuracy    <       0.00000037 Ry

     The total energy is the sum of the following terms:

     one-electron contribution =   -2568.08514071 Ry
     hartree contribution      =    1330.86480545 Ry
     xc contribution           =    -252.65692547 Ry
     ewald contribution        =     732.55151955 Ry
     smearing contrib. (-TS)   =      -0.00061349 Ry

     convergence has been achieved in  21 iterations

     Writing output data file vanadio-bridge2-distance-4.5.save/

     init_run     :     46.13s CPU     47.27s WALL (       1 calls)
     electrons    :   1140.71s CPU   1175.13s WALL (       1 calls)

     Called by init_run:
     wfcinit      :     21.53s CPU     21.70s WALL (       1 calls)
     wfcinit:atom :      0.02s CPU      0.04s WALL (       1 calls)
     wfcinit:wfcr :     21.34s CPU     21.45s WALL (       1 calls)
     potinit      :     11.14s CPU     11.56s WALL (       1 calls)
     hinit0       :      8.61s CPU      8.65s WALL (       1 calls)

     Called by electrons:
     c_bands      :    693.47s CPU    697.25s WALL (      21 calls)
     sum_band     :    220.67s CPU    232.41s WALL (      21 calls)
     v_of_rho     :    138.10s CPU    146.03s WALL (      22 calls)
     v_h          :      1.64s CPU      1.70s WALL (      22 calls)
     v_xc         :    136.46s CPU    144.34s WALL (      22 calls)
     newd         :     91.98s CPU    103.62s WALL (      22 calls)
     mix_rho      :      4.32s CPU      4.39s WALL (      21 calls)

     Called by c_bands:
     init_us_2    :      1.88s CPU      1.92s WALL (      43 calls)
     cegterg      :    688.27s CPU    692.04s WALL (      21 calls)

     Called by sum_band:
     sum_band:bec :      0.02s CPU      0.02s WALL (      21 calls)
     addusdens    :    135.75s CPU    146.78s WALL (      21 calls)

     Called by *egterg:
     h_psi        :    367.08s CPU    370.00s WALL (      91 calls)
     s_psi        :    121.50s CPU    121.56s WALL (      91 calls)
     g_psi        :      0.38s CPU      0.38s WALL (      69 calls)
     cdiaghg      :      6.60s CPU      6.60s WALL (      90 calls)
     cegterg:over :     85.16s CPU     85.19s WALL (      69 calls)
     cegterg:upda :     52.17s CPU     52.42s WALL (      69 calls)
     cegterg:last :     35.38s CPU     35.38s WALL (      21 calls)

     Called by h_psi:
     h_psi:pot    :    366.72s CPU    369.12s WALL (      91 calls)
     h_psi:calbec :    122.75s CPU    122.82s WALL (      91 calls)
     vloc_psi     :    122.44s CPU    124.73s WALL (      91 calls)
     add_vuspsi   :    121.53s CPU    121.58s WALL (      91 calls)

     General routines
     calbec       :    174.36s CPU    174.47s WALL (     112 calls)
     fft          :     77.24s CPU     80.31s WALL (    1384 calls)
     ffts         :      0.78s CPU      0.82s WALL (      43 calls)
     fftw         :    130.15s CPU    132.73s WALL (   15351 calls)
     interpolate  :      1.93s CPU      1.98s WALL (      22 calls)

     Parallel routines
     fft_scatt_xy :     35.82s CPU     36.30s WALL (   16778 calls)
     fft_scatt_yz :     72.73s CPU     76.79s WALL (   16778 calls)

     PWSCF        :  19m48.10s CPU  20m23.96s WALL


   This run was terminated on:   3:45:45  31Aug2022            

=------------------------------------------------------------------------------=
   JOB DONE.
=------------------------------------------------------------------------------=
