
     Program PWSCF v.6.4.1 starts on 31Aug2022 at  4:45:49 

     This program is part of the open-source Quantum ESPRESSO suite
     for quantum simulation of materials; please cite
         "P. Giannozzi et al., J. Phys.:Condens. Matter 21 395502 (2009);
         "P. Giannozzi et al., J. Phys.:Condens. Matter 29 465901 (2017);
          URL http://www.quantum-espresso.org", 
     in publications or presentations arising from this work. More details at
     http://www.quantum-espresso.org/quote

     Parallel version (MPI), running on     6 processors

     MPI processes distributed on     1 nodes
     R & G space division:  proc/nbgrp/npool/nimage =       6
     Reading input from distance-2.8.in

     Current dimensions of program PWSCF are:
     Max number of different atomic species (ntypx) = 10
     Max number of k-points (npk) =  40000
     Max angular momentum in pseudopotentials (lmaxx) =  3

     IMPORTANT: XC functional enforced from input :
     Exchange-correlation      = RVV10 ( 1  4 13  4 3 0)
     Any further DFT definition will be discarded
     Please, verify this is what you really want

               file H.pbe-rrkjus.UPF: wavefunction(s)  1S renormalized
               file V.pbe-spnl-rrkjus_psl.1.0.0.UPF: wavefunction(s)  3P 3D renormalized

     Subspace diagonalization in iterative solution of the eigenvalue problem:
     a serial algorithm will be used


     Parallelization info
     --------------------
     sticks:   dense  smooth     PW     G-vecs:    dense   smooth      PW
     Min        3051    1746    432               270999   117096   14629
     Max        3053    1747    437               271001   117099   14630
     Sum       18313   10477   2611              1626001   702581   87777



     bravais-lattice index     =            4
     lattice parameter (alat)  =      23.2937  a.u.
     unit-cell volume          =    8879.8548 (a.u.)^3
     number of atoms/cell      =           52
     number of atomic types    =            3
     number of electrons       =       211.00
     number of Kohn-Sham states=          127
     kinetic-energy cutoff     =      70.0000  Ry
     charge density cutoff     =     490.0000  Ry
     convergence threshold     =      1.0E-06
     mixing beta               =       0.7000
     number of iterations used =            8  plain     mixing
     Exchange-correlation      = RVV10 ( 1  4 13  4 3 0)

     celldm(1)=  23.293684  celldm(2)=   0.000000  celldm(3)=   0.811261
     celldm(4)=   0.000000  celldm(5)=   0.000000  celldm(6)=   0.000000

     crystal axes: (cart. coord. in units of alat)
               a(1) = (   1.000000   0.000000   0.000000 )  
               a(2) = (  -0.500000   0.866025   0.000000 )  
               a(3) = (   0.000000   0.000000   0.811261 )  

     reciprocal axes: (cart. coord. in units 2 pi/alat)
               b(1) = (  1.000000  0.577350 -0.000000 )  
               b(2) = (  0.000000  1.154701  0.000000 )  
               b(3) = (  0.000000 -0.000000  1.232649 )  


     PseudoPot. # 1 for H  read from file:
     /home/cristian/Escritorio/Proyecto_Grafeno/pseudopotenciales/H.pbe-rrkjus.UPF
     MD5 check sum: 7cc9d459525c9a0585f487a71c3c9563
     Pseudo is Ultrasoft, Zval =  1.0
     Generated by new atomic code, or converted to UPF format
     Using radial grid of 1061 points,  2 beta functions with: 
                l(1) =   0
                l(2) =   0
     Q(r) pseudized with 0 coefficients 


     PseudoPot. # 2 for C  read from file:
     /home/cristian/Escritorio/Proyecto_Grafeno/pseudopotenciales/C.pbe-n-rrkjus_psl.1.0.0.UPF
     MD5 check sum: 1fdd950c42eb37d8afe3dd2f8d12311e
     Pseudo is Ultrasoft + core correction, Zval =  4.0
     Generated using "atomic" code by A. Dal Corso v.6.3MaX
     Using radial grid of 1073 points,  4 beta functions with: 
                l(1) =   0
                l(2) =   0
                l(3) =   1
                l(4) =   1
     Q(r) pseudized with 0 coefficients 


     PseudoPot. # 3 for V  read from file:
     /home/cristian/Escritorio/Proyecto_Grafeno/pseudopotenciales/V.pbe-spnl-rrkjus_psl.1.0.0.UPF
     MD5 check sum: 79b3eb63147daf0b665d9f1bcc691206
     Pseudo is Ultrasoft + core correction, Zval = 13.0
     Generated using "atomic" code by A. Dal Corso v.6.2.2
     Using radial grid of 1181 points,  6 beta functions with: 
                l(1) =   0
                l(2) =   0
                l(3) =   1
                l(4) =   1
                l(5) =   2
                l(6) =   2
     Q(r) pseudized with 0 coefficients 


     vdW kernel table read from file rVV10_kernel_table
     MD5 check sum: b8e2538accc0c0b3206b45ba4daaba6c

     atomic species   valence    mass     pseudopotential
        H              1.00     1.00794     H ( 1.00)
        C              4.00    12.01070     C ( 1.00)
        V             13.00    50.94150     V ( 1.00)

     No symmetry found


                                    s                        frac. trans.

      isym =  1     identity                                     

 cryst.   s( 1) = (     1          0          0      )
                  (     0          1          0      )
                  (     0          0          1      )

 cart.    s( 1) = (  1.0000000  0.0000000  0.0000000 )
                  (  0.0000000  1.0000000  0.0000000 )
                  (  0.0000000  0.0000000  1.0000000 )


     point group C_1 (1)    
     there are  1 classes
     the character table:

       E    
A      1.00

     the symmetry operations in each class and the name of the first element:

     E        1
          identity                                               

   Cartesian axes

     site n.     atom                  positions (alat units)
         1           H   tau(   1) = (   0.2194937   0.4330127   0.2271531  )
         2           H   tau(   2) = (   0.2805063   0.4330127   0.2271531  )
         3           C   tau(   3) = (   0.0000000   0.0000000   0.0000000  )
         4           C   tau(   4) = (   0.0000000   0.1154701   0.0000000  )
         5           C   tau(   5) = (  -0.1000000   0.1732051   0.0000000  )
         6           C   tau(   6) = (  -0.1000000   0.2886751   0.0000000  )
         7           C   tau(   7) = (  -0.2000000   0.3464102   0.0000000  )
         8           C   tau(   8) = (  -0.2000000   0.4618802   0.0000000  )
         9           C   tau(   9) = (  -0.3000000   0.5196152   0.0000000  )
        10           C   tau(  10) = (  -0.3000000   0.6350853   0.0000000  )
        11           C   tau(  11) = (  -0.4000000   0.6928203   0.0000000  )
        12           C   tau(  12) = (  -0.4000000   0.8082904   0.0000000  )
        13           C   tau(  13) = (   0.2000000   0.0000000   0.0000000  )
        14           C   tau(  14) = (   0.2000000   0.1154701   0.0000000  )
        15           C   tau(  15) = (   0.1000000   0.1732051   0.0000000  )
        16           C   tau(  16) = (   0.1000000   0.2886751   0.0000000  )
        17           C   tau(  17) = (   0.0000000   0.3464102   0.0000000  )
        18           C   tau(  18) = (   0.0000000   0.4618802   0.0000000  )
        19           C   tau(  19) = (  -0.1000000   0.5196152   0.0000000  )
        20           C   tau(  20) = (  -0.1000000   0.6350853   0.0000000  )
        21           C   tau(  21) = (  -0.2000000   0.6928203   0.0000000  )
        22           C   tau(  22) = (  -0.2000000   0.8082904   0.0000000  )
        23           C   tau(  23) = (   0.4000000   0.0000000   0.0000000  )
        24           C   tau(  24) = (   0.4000000   0.1154701   0.0000000  )
        25           C   tau(  25) = (   0.3000000   0.1732051   0.0000000  )
        26           C   tau(  26) = (   0.3000000   0.2886751   0.0000000  )
        27           C   tau(  27) = (   0.2000000   0.3464102   0.0000000  )
        28           V   tau(  28) = (   0.2000000   0.4618802   0.0000000  )
        29           C   tau(  29) = (   0.1000000   0.5196152   0.0000000  )
        30           C   tau(  30) = (   0.1000000   0.6350853   0.0000000  )
        31           C   tau(  31) = (   0.0000000   0.6928203   0.0000000  )
        32           C   tau(  32) = (   0.0000000   0.8082904   0.0000000  )
        33           C   tau(  33) = (   0.6000000   0.0000000   0.0000000  )
        34           C   tau(  34) = (   0.6000000   0.1154701   0.0000000  )
        35           C   tau(  35) = (   0.5000000   0.1732051   0.0000000  )
        36           C   tau(  36) = (   0.5000000   0.2886751   0.0000000  )
        37           C   tau(  37) = (   0.4000000   0.3464102   0.0000000  )
        38           C   tau(  38) = (   0.4000000   0.4618802   0.0000000  )
        39           C   tau(  39) = (   0.3000000   0.5196152   0.0000000  )
        40           C   tau(  40) = (   0.3000000   0.6350853   0.0000000  )
        41           C   tau(  41) = (   0.2000000   0.6928203   0.0000000  )
        42           C   tau(  42) = (   0.2000000   0.8082904   0.0000000  )
        43           C   tau(  43) = (   0.8000000   0.0000000   0.0000000  )
        44           C   tau(  44) = (   0.8000000   0.1154701   0.0000000  )
        45           C   tau(  45) = (   0.7000000   0.1732051   0.0000000  )
        46           C   tau(  46) = (   0.7000000   0.2886751   0.0000000  )
        47           C   tau(  47) = (   0.6000000   0.3464102   0.0000000  )
        48           C   tau(  48) = (   0.6000000   0.4618802   0.0000000  )
        49           C   tau(  49) = (   0.5000000   0.5196152   0.0000000  )
        50           C   tau(  50) = (   0.5000000   0.6350853   0.0000000  )
        51           C   tau(  51) = (   0.4000000   0.6928203   0.0000000  )
        52           C   tau(  52) = (   0.4000000   0.8082904   0.0000000  )

   Crystallographic axes

     site n.     atom                  positions (cryst. coord.)
         1           H   tau(   1) = (  0.4694937  0.5000000  0.2800000  )
         2           H   tau(   2) = (  0.5305063  0.5000000  0.2800000  )
         3           C   tau(   3) = (  0.0000000  0.0000000  0.0000000  )
         4           C   tau(   4) = (  0.0666667  0.1333333  0.0000000  )
         5           C   tau(   5) = (  0.0000000  0.2000000  0.0000000  )
         6           C   tau(   6) = (  0.0666667  0.3333333  0.0000000  )
         7           C   tau(   7) = (  0.0000000  0.4000000  0.0000000  )
         8           C   tau(   8) = (  0.0666667  0.5333333  0.0000000  )
         9           C   tau(   9) = (  0.0000000  0.6000000  0.0000000  )
        10           C   tau(  10) = (  0.0666667  0.7333333  0.0000000  )
        11           C   tau(  11) = (  0.0000000  0.8000000  0.0000000  )
        12           C   tau(  12) = (  0.0666667  0.9333333  0.0000000  )
        13           C   tau(  13) = (  0.2000000  0.0000000  0.0000000  )
        14           C   tau(  14) = (  0.2666667  0.1333333  0.0000000  )
        15           C   tau(  15) = (  0.2000000  0.2000000  0.0000000  )
        16           C   tau(  16) = (  0.2666667  0.3333333  0.0000000  )
        17           C   tau(  17) = (  0.2000000  0.4000000  0.0000000  )
        18           C   tau(  18) = (  0.2666667  0.5333333  0.0000000  )
        19           C   tau(  19) = (  0.2000000  0.6000000  0.0000000  )
        20           C   tau(  20) = (  0.2666667  0.7333333  0.0000000  )
        21           C   tau(  21) = (  0.2000000  0.8000000  0.0000000  )
        22           C   tau(  22) = (  0.2666667  0.9333333  0.0000000  )
        23           C   tau(  23) = (  0.4000000  0.0000000  0.0000000  )
        24           C   tau(  24) = (  0.4666667  0.1333333  0.0000000  )
        25           C   tau(  25) = (  0.4000000  0.2000000  0.0000000  )
        26           C   tau(  26) = (  0.4666667  0.3333333  0.0000000  )
        27           C   tau(  27) = (  0.4000000  0.4000000  0.0000000  )
        28           V   tau(  28) = (  0.4666667  0.5333333  0.0000000  )
        29           C   tau(  29) = (  0.4000000  0.6000000  0.0000000  )
        30           C   tau(  30) = (  0.4666667  0.7333333  0.0000000  )
        31           C   tau(  31) = (  0.4000000  0.8000000  0.0000000  )
        32           C   tau(  32) = (  0.4666667  0.9333333  0.0000000  )
        33           C   tau(  33) = (  0.6000000  0.0000000  0.0000000  )
        34           C   tau(  34) = (  0.6666667  0.1333333  0.0000000  )
        35           C   tau(  35) = (  0.6000000  0.2000000  0.0000000  )
        36           C   tau(  36) = (  0.6666667  0.3333333  0.0000000  )
        37           C   tau(  37) = (  0.6000000  0.4000000  0.0000000  )
        38           C   tau(  38) = (  0.6666667  0.5333333  0.0000000  )
        39           C   tau(  39) = (  0.6000000  0.6000000  0.0000000  )
        40           C   tau(  40) = (  0.6666667  0.7333333  0.0000000  )
        41           C   tau(  41) = (  0.6000000  0.8000000  0.0000000  )
        42           C   tau(  42) = (  0.6666667  0.9333333  0.0000000  )
        43           C   tau(  43) = (  0.8000000  0.0000000  0.0000000  )
        44           C   tau(  44) = (  0.8666667  0.1333333  0.0000000  )
        45           C   tau(  45) = (  0.8000000  0.2000000  0.0000000  )
        46           C   tau(  46) = (  0.8666667  0.3333333  0.0000000  )
        47           C   tau(  47) = (  0.8000000  0.4000000  0.0000000  )
        48           C   tau(  48) = (  0.8666667  0.5333333  0.0000000  )
        49           C   tau(  49) = (  0.8000000  0.6000000  0.0000000  )
        50           C   tau(  50) = (  0.8666667  0.7333333  0.0000000  )
        51           C   tau(  51) = (  0.8000000  0.8000000  0.0000000  )
        52           C   tau(  52) = (  0.8666667  0.9333333  0.0000000  )

     number of k points=     1  Marzari-Vanderbilt smearing, width (Ry)=  0.0010
                       cart. coord. in units 2pi/alat
        k(    1) = (   0.0000000   0.0000000   0.0000000), wk =   2.0000000

                       cryst. coord.
        k(    1) = (   0.0000000   0.0000000   0.0000000), wk =   2.0000000

     Dense  grid:  1626001 G-vectors     FFT dimensions: ( 180, 180, 135)

     Smooth grid:   702581 G-vectors     FFT dimensions: ( 125, 125, 108)

     Dynamical RAM for                 wfc:      28.36 MB

     Dynamical RAM for     wfc (w. buffer):      28.36 MB

     Dynamical RAM for           str. fact:      12.41 MB

     Dynamical RAM for           local pot:       0.00 MB

     Dynamical RAM for          nlocal pot:      92.46 MB

     Dynamical RAM for                qrad:      19.73 MB

     Dynamical RAM for          rho,v,vnew:      29.46 MB

     Dynamical RAM for               rhoin:       9.82 MB

     Dynamical RAM for            rho*nmix:      66.16 MB

     Dynamical RAM for           G-vectors:      16.40 MB

     Dynamical RAM for          h,s,v(r/c):      11.81 MB

     Dynamical RAM for          <psi|beta>:       0.80 MB

     Dynamical RAM for                 psi:     113.46 MB

     Dynamical RAM for                hpsi:     113.46 MB

     Dynamical RAM for                spsi:     113.46 MB

     Dynamical RAM for      wfcinit/wfcrot:      93.90 MB

     Dynamical RAM for           addusdens:     971.75 MB

     Estimated static dynamical RAM per process >     319.78 MB

     Estimated max dynamical RAM per process >       1.26 GB

     Estimated total dynamical RAM >       7.57 GB

     Check: negative core charge=   -0.000002

     Initial potential from superposition of free atoms

     starting charge  210.80465, renormalised to  211.00000

     negative rho (up, down):  1.179E-04 0.000E+00


---------------------------------------------------------------------------------
Carrying out rVV10 run using the following parameters:
Nqs =      20    Nr_points =    1024   r_max =   100.000
b_value =  6.30000    beta =  0.00901
     q_mesh =  0.00010000  0.00030000  0.00058939  0.00100810
               0.00161396  0.00249058  0.00375900  0.00559430
               0.00824984  0.01209221  0.01765183  0.02569619
               0.03733578  0.05417739  0.07854596  0.11380545
               0.16482331  0.23864234  0.34545298  0.50000000

Gradients computed in Reciprocal space

---------------------------------------------------------------------------------


     Starting wfcs are  208 randomized atomic wfcs

     total cpu time spent up to now is       51.3 secs

     Self-consistent Calculation

     iteration #  1     ecut=    70.00 Ry     beta= 0.70
     Davidson diagonalization with overlap
     ethr =  1.00E-02,  avg # of iterations =  3.0

     negative rho (up, down):  7.442E-04 0.000E+00

     total cpu time spent up to now is      125.4 secs

     total energy              =    -753.88902409 Ry
     Harris-Foulkes estimate   =    -760.52251700 Ry
     estimated scf accuracy    <       9.50542933 Ry

     iteration #  2     ecut=    70.00 Ry     beta= 0.70
     Davidson diagonalization with overlap
     ethr =  4.50E-03,  avg # of iterations =  7.0

     negative rho (up, down):  7.700E-03 0.000E+00

     total cpu time spent up to now is      198.0 secs

     total energy              =    -748.04414270 Ry
     Harris-Foulkes estimate   =    -766.77621535 Ry
     estimated scf accuracy    <      64.39747311 Ry

     iteration #  3     ecut=    70.00 Ry     beta= 0.70
     Davidson diagonalization with overlap
     ethr =  4.50E-03,  avg # of iterations =  5.0

     negative rho (up, down):  9.656E-04 0.000E+00

     total cpu time spent up to now is      298.7 secs

     total energy              =    -755.73045201 Ry
     Harris-Foulkes estimate   =    -758.39559896 Ry
     estimated scf accuracy    <      11.41472420 Ry

     iteration #  4     ecut=    70.00 Ry     beta= 0.70
     Davidson diagonalization with overlap
     ethr =  4.50E-03,  avg # of iterations =  3.0

     negative rho (up, down):  5.230E-02 0.000E+00

     total cpu time spent up to now is      354.4 secs

     total energy              =    -757.08593462 Ry
     Harris-Foulkes estimate   =    -757.68082541 Ry
     estimated scf accuracy    <       1.65310043 Ry

     iteration #  5     ecut=    70.00 Ry     beta= 0.70
     Davidson diagonalization with overlap
     ethr =  7.83E-04,  avg # of iterations =  6.0

     negative rho (up, down):  6.925E-02 0.000E+00

     total cpu time spent up to now is      417.7 secs

     total energy              =    -757.26163619 Ry
     Harris-Foulkes estimate   =    -757.33491876 Ry
     estimated scf accuracy    <       0.24156725 Ry

     iteration #  6     ecut=    70.00 Ry     beta= 0.70
     Davidson diagonalization with overlap
     ethr =  1.14E-04,  avg # of iterations =  4.0

     negative rho (up, down):  5.720E-02 0.000E+00

     total cpu time spent up to now is      476.7 secs

     total energy              =    -757.28980406 Ry
     Harris-Foulkes estimate   =    -757.30982680 Ry
     estimated scf accuracy    <       0.13164377 Ry

     iteration #  7     ecut=    70.00 Ry     beta= 0.70
     Davidson diagonalization with overlap
     ethr =  6.24E-05,  avg # of iterations =  3.0

     negative rho (up, down):  4.188E-02 0.000E+00

     total cpu time spent up to now is      532.2 secs

     total energy              =    -757.30666844 Ry
     Harris-Foulkes estimate   =    -757.31147270 Ry
     estimated scf accuracy    <       0.07104155 Ry

     iteration #  8     ecut=    70.00 Ry     beta= 0.70
     Davidson diagonalization with overlap
     ethr =  3.37E-05,  avg # of iterations =  3.0

     negative rho (up, down):  2.820E-02 0.000E+00

     total cpu time spent up to now is      590.7 secs

     total energy              =    -757.32341840 Ry
     Harris-Foulkes estimate   =    -757.31961605 Ry
     estimated scf accuracy    <       0.03299448 Ry

     iteration #  9     ecut=    70.00 Ry     beta= 0.70
     Davidson diagonalization with overlap
     ethr =  1.56E-05,  avg # of iterations =  6.0

     negative rho (up, down):  3.085E-02 0.000E+00

     total cpu time spent up to now is      652.7 secs

     total energy              =    -757.32910183 Ry
     Harris-Foulkes estimate   =    -757.32978928 Ry
     estimated scf accuracy    <       0.01568638 Ry

     iteration # 10     ecut=    70.00 Ry     beta= 0.70
     Davidson diagonalization with overlap
     ethr =  7.43E-06,  avg # of iterations =  3.0

     negative rho (up, down):  3.611E-02 0.000E+00

     total cpu time spent up to now is      711.2 secs

     total energy              =    -757.32817854 Ry
     Harris-Foulkes estimate   =    -757.33108003 Ry
     estimated scf accuracy    <       0.01034732 Ry

     iteration # 11     ecut=    70.00 Ry     beta= 0.70
     Davidson diagonalization with overlap
     ethr =  4.90E-06,  avg # of iterations =  3.0

     negative rho (up, down):  3.589E-02 0.000E+00

     total cpu time spent up to now is      770.6 secs

     total energy              =    -757.32932581 Ry
     Harris-Foulkes estimate   =    -757.33063697 Ry
     estimated scf accuracy    <       0.01750049 Ry

     iteration # 12     ecut=    70.00 Ry     beta= 0.70
     Davidson diagonalization with overlap
     ethr =  4.90E-06,  avg # of iterations =  2.0

     negative rho (up, down):  3.327E-02 0.000E+00

     total cpu time spent up to now is      826.7 secs

     total energy              =    -757.33161436 Ry
     Harris-Foulkes estimate   =    -757.32987188 Ry
     estimated scf accuracy    <       0.00042086 Ry

     iteration # 13     ecut=    70.00 Ry     beta= 0.70
     Davidson diagonalization with overlap
     ethr =  1.99E-07,  avg # of iterations =  5.0

     negative rho (up, down):  3.355E-02 0.000E+00

     total cpu time spent up to now is      895.7 secs

     total energy              =    -757.33176416 Ry
     Harris-Foulkes estimate   =    -757.33178013 Ry
     estimated scf accuracy    <       0.00070996 Ry

     iteration # 14     ecut=    70.00 Ry     beta= 0.70
     Davidson diagonalization with overlap
     ethr =  1.99E-07,  avg # of iterations = 16.0

     negative rho (up, down):  3.380E-02 0.000E+00

     total cpu time spent up to now is      955.7 secs

     total energy              =    -757.33187126 Ry
     Harris-Foulkes estimate   =    -757.33185121 Ry
     estimated scf accuracy    <       0.00017341 Ry

     iteration # 15     ecut=    70.00 Ry     beta= 0.70
     Davidson diagonalization with overlap
     ethr =  8.22E-08,  avg # of iterations =  4.0

     negative rho (up, down):  3.397E-02 0.000E+00

     total cpu time spent up to now is     1012.1 secs

     total energy              =    -757.33203646 Ry
     Harris-Foulkes estimate   =    -757.33189524 Ry
     estimated scf accuracy    <       0.00014541 Ry

     iteration # 16     ecut=    70.00 Ry     beta= 0.70
     Davidson diagonalization with overlap
     ethr =  6.89E-08,  avg # of iterations =  3.0

     negative rho (up, down):  3.409E-02 0.000E+00

     total cpu time spent up to now is     1068.6 secs

     total energy              =    -757.33204353 Ry
     Harris-Foulkes estimate   =    -757.33205336 Ry
     estimated scf accuracy    <       0.00016092 Ry

     iteration # 17     ecut=    70.00 Ry     beta= 0.70
     Davidson diagonalization with overlap
     ethr =  6.89E-08,  avg # of iterations =  1.0

     negative rho (up, down):  3.409E-02 0.000E+00

     total cpu time spent up to now is     1122.8 secs

     total energy              =    -757.33204564 Ry
     Harris-Foulkes estimate   =    -757.33204808 Ry
     estimated scf accuracy    <       0.00000307 Ry

     iteration # 18     ecut=    70.00 Ry     beta= 0.70
     Davidson diagonalization with overlap
     ethr =  1.46E-09,  avg # of iterations =  3.0

     negative rho (up, down):  3.414E-02 0.000E+00

     total cpu time spent up to now is     1184.3 secs

     total energy              =    -757.33204702 Ry
     Harris-Foulkes estimate   =    -757.33204656 Ry
     estimated scf accuracy    <       0.00000155 Ry

     iteration # 19     ecut=    70.00 Ry     beta= 0.70
     Davidson diagonalization with overlap
     ethr =  7.35E-10,  avg # of iterations =  3.0

     negative rho (up, down):  3.413E-02 0.000E+00

     total cpu time spent up to now is     1243.6 secs

     total energy              =    -757.33204682 Ry
     Harris-Foulkes estimate   =    -757.33204742 Ry
     estimated scf accuracy    <       0.00000118 Ry

     iteration # 20     ecut=    70.00 Ry     beta= 0.70
     Davidson diagonalization with overlap
     ethr =  5.59E-10,  avg # of iterations =  2.0

     negative rho (up, down):  3.416E-02 0.000E+00

     total cpu time spent up to now is     1298.7 secs

     total energy              =    -757.33204708 Ry
     Harris-Foulkes estimate   =    -757.33204698 Ry
     estimated scf accuracy    <       0.00000113 Ry

     iteration # 21     ecut=    70.00 Ry     beta= 0.70
     Davidson diagonalization with overlap
     ethr =  5.37E-10,  avg # of iterations =  2.0

     negative rho (up, down):  3.416E-02 0.000E+00

     total cpu time spent up to now is     1354.9 secs

     End of self-consistent calculation

          k = 0.0000 0.0000 0.0000 ( 87777 PWs)   bands (ev):

   -62.7370 -37.8394 -37.8363 -36.4659 -19.6127 -18.7703 -18.7695 -18.7003
   -18.6593 -18.6561 -18.2129 -16.9181 -16.9168 -16.9152 -16.7738 -16.7726
   -16.4979 -16.0589 -16.0582 -15.9706 -15.8124 -15.8112 -15.0639 -13.8655
   -13.8595 -13.8576 -13.8468 -13.8466 -13.1234 -12.9017 -12.9014 -12.8815
   -12.4905 -12.4894 -12.0926 -11.6254 -11.6252 -11.5032 -11.1223 -11.1218
   -10.1328  -9.3180  -9.3174  -9.2390  -9.1628  -9.1626  -9.0770  -9.0499
    -9.0496  -9.0360  -8.4493  -8.4488  -7.8775  -7.8773  -7.8465  -7.7963
    -7.6611  -7.4060  -7.2379  -7.2364  -6.9133  -6.8929  -6.8714  -6.6722
    -6.6718  -6.6597  -6.5743  -6.5736  -6.5283  -6.4195  -6.4183  -6.3761
    -6.3726  -6.3719  -6.3184  -6.2028  -5.2442  -5.2440  -5.1027  -5.0954
    -4.9295  -4.9282  -4.8204  -4.7327  -4.5895  -4.5742  -4.5724  -4.2055
    -3.9487  -3.9482  -3.7131  -3.7123  -3.6258  -3.6003  -3.4841  -3.4838
    -2.8534  -2.2163  -2.2146  -2.1772  -2.1763  -1.6905  -1.6642  -1.6629
    -0.5126  -0.1166  -0.1165   1.0860   1.0956   1.1015   1.1211   1.8484
     2.0949   2.0952   2.5679   2.9372   2.9418   3.0055   3.2342   3.4889
     3.6979   3.7648   3.7774   3.8303   3.9657   4.0411   4.0466

     occupation numbers 
     1.0000   1.0000   1.0000   1.0000   1.0000   1.0000   1.0000   1.0000
     1.0000   1.0000   1.0000   1.0000   1.0000   1.0000   1.0000   1.0000
     1.0000   1.0000   1.0000   1.0000   1.0000   1.0000   1.0000   1.0000
     1.0000   1.0000   1.0000   1.0000   1.0000   1.0000   1.0000   1.0000
     1.0000   1.0000   1.0000   1.0000   1.0000   1.0000   1.0000   1.0000
     1.0000   1.0000   1.0000   1.0000   1.0000   1.0000   1.0000   1.0000
     1.0000   1.0000   1.0000   1.0000   1.0000   1.0000   1.0000   1.0000
     1.0000   1.0000   1.0000   1.0000   1.0000   1.0000   1.0000   1.0000
     1.0000   1.0000   1.0000   1.0000   1.0000   1.0000   1.0000   1.0000
     1.0000   1.0000   1.0000   1.0000   1.0000   1.0000   1.0000   1.0000
     1.0000   1.0000   1.0000   1.0000   1.0000   1.0000   1.0000   1.0000
     1.0000   1.0000   1.0000   1.0000   1.0000   1.0000   1.0000   1.0000
     1.0000   1.0000   1.0000   1.0000   1.0000   1.0000   1.0000   1.0000
     1.0000   0.2529   0.2471   0.0000   0.0000   0.0000   0.0000   0.0000
     0.0000   0.0000   0.0000   0.0000   0.0000   0.0000   0.0000   0.0000
     0.0000   0.0000   0.0000   0.0000   0.0000   0.0000   0.0000

     the Fermi energy is    -0.1199 ev

!    total energy              =    -757.33204653 Ry
     Harris-Foulkes estimate   =    -757.33204718 Ry
     estimated scf accuracy    <       0.00000089 Ry

     The total energy is the sum of the following terms:

     one-electron contribution =   -2590.08638000 Ry
     hartree contribution      =    1341.93352178 Ry
     xc contribution           =    -252.66832074 Ry
     ewald contribution        =     743.48974589 Ry
     smearing contrib. (-TS)   =      -0.00061346 Ry

     convergence has been achieved in  21 iterations

     Writing output data file vanadio-bridge2-distance-2.8.save/

     init_run     :     48.95s CPU     50.08s WALL (       1 calls)
     electrons    :   1266.49s CPU   1303.83s WALL (       1 calls)

     Called by init_run:
     wfcinit      :     23.25s CPU     23.44s WALL (       1 calls)
     wfcinit:atom :      0.03s CPU      0.04s WALL (       1 calls)
     wfcinit:wfcr :     23.06s CPU     23.20s WALL (       1 calls)
     potinit      :     11.60s CPU     11.99s WALL (       1 calls)
     hinit0       :      8.76s CPU      8.81s WALL (       1 calls)

     Called by electrons:
     c_bands      :    783.23s CPU    788.00s WALL (      21 calls)
     sum_band     :    240.35s CPU    252.73s WALL (      21 calls)
     v_of_rho     :    145.06s CPU    154.00s WALL (      22 calls)
     v_h          :      1.64s CPU      1.69s WALL (      22 calls)
     v_xc         :    143.42s CPU    152.30s WALL (      22 calls)
     newd         :    102.23s CPU    114.13s WALL (      22 calls)
     mix_rho      :      4.55s CPU      4.61s WALL (      21 calls)

     Called by c_bands:
     init_us_2    :      1.96s CPU      2.00s WALL (      43 calls)
     cegterg      :    777.84s CPU    782.58s WALL (      21 calls)

     Called by sum_band:
     sum_band:bec :      0.02s CPU      0.02s WALL (      21 calls)
     addusdens    :    150.29s CPU    161.93s WALL (      21 calls)

     Called by *egterg:
     h_psi        :    397.46s CPU    400.70s WALL (     109 calls)
     s_psi        :    131.78s CPU    131.93s WALL (     109 calls)
     g_psi        :      0.41s CPU      0.42s WALL (      87 calls)
     cdiaghg      :      8.35s CPU      8.37s WALL (     108 calls)
     cegterg:over :    103.56s CPU    103.68s WALL (      87 calls)
     cegterg:upda :     65.62s CPU     66.06s WALL (      87 calls)
     cegterg:last :     49.17s CPU     49.21s WALL (      22 calls)

     Called by h_psi:
     h_psi:pot    :    396.94s CPU    399.66s WALL (     109 calls)
     h_psi:calbec :    131.39s CPU    131.53s WALL (     109 calls)
     vloc_psi     :    133.90s CPU    136.34s WALL (     109 calls)
     add_vuspsi   :    131.65s CPU    131.78s WALL (     109 calls)

     General routines
     calbec       :    185.48s CPU    185.68s WALL (     130 calls)
     fft          :     84.06s CPU     87.42s WALL (    1384 calls)
     ffts         :      0.86s CPU      0.90s WALL (      43 calls)
     fftw         :    141.20s CPU    143.94s WALL (   15757 calls)
     interpolate  :      1.94s CPU      2.00s WALL (      22 calls)

     Parallel routines
     fft_scatt_xy :     39.57s CPU     40.07s WALL (   17184 calls)
     fft_scatt_yz :     77.91s CPU     82.31s WALL (   17184 calls)

     PWSCF        :  21m56.73s CPU  22m35.65s WALL


   This run was terminated on:   5: 8:24  31Aug2022            

=------------------------------------------------------------------------------=
   JOB DONE.
=------------------------------------------------------------------------------=
