
     Program PWSCF v.6.4.1 starts on 31Aug2022 at  5: 8:25 

     This program is part of the open-source Quantum ESPRESSO suite
     for quantum simulation of materials; please cite
         "P. Giannozzi et al., J. Phys.:Condens. Matter 21 395502 (2009);
         "P. Giannozzi et al., J. Phys.:Condens. Matter 29 465901 (2017);
          URL http://www.quantum-espresso.org", 
     in publications or presentations arising from this work. More details at
     http://www.quantum-espresso.org/quote

     Parallel version (MPI), running on     6 processors

     MPI processes distributed on     1 nodes
     R & G space division:  proc/nbgrp/npool/nimage =       6
     Reading input from distance-2.6.in

     Current dimensions of program PWSCF are:
     Max number of different atomic species (ntypx) = 10
     Max number of k-points (npk) =  40000
     Max angular momentum in pseudopotentials (lmaxx) =  3

     IMPORTANT: XC functional enforced from input :
     Exchange-correlation      = RVV10 ( 1  4 13  4 3 0)
     Any further DFT definition will be discarded
     Please, verify this is what you really want

               file H.pbe-rrkjus.UPF: wavefunction(s)  1S renormalized
               file V.pbe-spnl-rrkjus_psl.1.0.0.UPF: wavefunction(s)  3P 3D renormalized

     Subspace diagonalization in iterative solution of the eigenvalue problem:
     a serial algorithm will be used


     Parallelization info
     --------------------
     sticks:   dense  smooth     PW     G-vecs:    dense   smooth      PW
     Min        3051    1746    432               270999   117096   14629
     Max        3053    1747    437               271001   117099   14630
     Sum       18313   10477   2611              1626001   702581   87777



     bravais-lattice index     =            4
     lattice parameter (alat)  =      23.2937  a.u.
     unit-cell volume          =    8879.8548 (a.u.)^3
     number of atoms/cell      =           52
     number of atomic types    =            3
     number of electrons       =       211.00
     number of Kohn-Sham states=          127
     kinetic-energy cutoff     =      70.0000  Ry
     charge density cutoff     =     490.0000  Ry
     convergence threshold     =      1.0E-06
     mixing beta               =       0.7000
     number of iterations used =            8  plain     mixing
     Exchange-correlation      = RVV10 ( 1  4 13  4 3 0)

     celldm(1)=  23.293684  celldm(2)=   0.000000  celldm(3)=   0.811261
     celldm(4)=   0.000000  celldm(5)=   0.000000  celldm(6)=   0.000000

     crystal axes: (cart. coord. in units of alat)
               a(1) = (   1.000000   0.000000   0.000000 )  
               a(2) = (  -0.500000   0.866025   0.000000 )  
               a(3) = (   0.000000   0.000000   0.811261 )  

     reciprocal axes: (cart. coord. in units 2 pi/alat)
               b(1) = (  1.000000  0.577350 -0.000000 )  
               b(2) = (  0.000000  1.154701  0.000000 )  
               b(3) = (  0.000000 -0.000000  1.232649 )  


     PseudoPot. # 1 for H  read from file:
     /home/cristian/Escritorio/Proyecto_Grafeno/pseudopotenciales/H.pbe-rrkjus.UPF
     MD5 check sum: 7cc9d459525c9a0585f487a71c3c9563
     Pseudo is Ultrasoft, Zval =  1.0
     Generated by new atomic code, or converted to UPF format
     Using radial grid of 1061 points,  2 beta functions with: 
                l(1) =   0
                l(2) =   0
     Q(r) pseudized with 0 coefficients 


     PseudoPot. # 2 for C  read from file:
     /home/cristian/Escritorio/Proyecto_Grafeno/pseudopotenciales/C.pbe-n-rrkjus_psl.1.0.0.UPF
     MD5 check sum: 1fdd950c42eb37d8afe3dd2f8d12311e
     Pseudo is Ultrasoft + core correction, Zval =  4.0
     Generated using "atomic" code by A. Dal Corso v.6.3MaX
     Using radial grid of 1073 points,  4 beta functions with: 
                l(1) =   0
                l(2) =   0
                l(3) =   1
                l(4) =   1
     Q(r) pseudized with 0 coefficients 


     PseudoPot. # 3 for V  read from file:
     /home/cristian/Escritorio/Proyecto_Grafeno/pseudopotenciales/V.pbe-spnl-rrkjus_psl.1.0.0.UPF
     MD5 check sum: 79b3eb63147daf0b665d9f1bcc691206
     Pseudo is Ultrasoft + core correction, Zval = 13.0
     Generated using "atomic" code by A. Dal Corso v.6.2.2
     Using radial grid of 1181 points,  6 beta functions with: 
                l(1) =   0
                l(2) =   0
                l(3) =   1
                l(4) =   1
                l(5) =   2
                l(6) =   2
     Q(r) pseudized with 0 coefficients 


     vdW kernel table read from file rVV10_kernel_table
     MD5 check sum: b8e2538accc0c0b3206b45ba4daaba6c

     atomic species   valence    mass     pseudopotential
        H              1.00     1.00794     H ( 1.00)
        C              4.00    12.01070     C ( 1.00)
        V             13.00    50.94150     V ( 1.00)

     No symmetry found


                                    s                        frac. trans.

      isym =  1     identity                                     

 cryst.   s( 1) = (     1          0          0      )
                  (     0          1          0      )
                  (     0          0          1      )

 cart.    s( 1) = (  1.0000000  0.0000000  0.0000000 )
                  (  0.0000000  1.0000000  0.0000000 )
                  (  0.0000000  0.0000000  1.0000000 )


     point group C_1 (1)    
     there are  1 classes
     the character table:

       E    
A      1.00

     the symmetry operations in each class and the name of the first element:

     E        1
          identity                                               

   Cartesian axes

     site n.     atom                  positions (alat units)
         1           H   tau(   1) = (   0.2194937   0.4330127   0.2109279  )
         2           H   tau(   2) = (   0.2805063   0.4330127   0.2109279  )
         3           C   tau(   3) = (   0.0000000   0.0000000   0.0000000  )
         4           C   tau(   4) = (   0.0000000   0.1154701   0.0000000  )
         5           C   tau(   5) = (  -0.1000000   0.1732051   0.0000000  )
         6           C   tau(   6) = (  -0.1000000   0.2886751   0.0000000  )
         7           C   tau(   7) = (  -0.2000000   0.3464102   0.0000000  )
         8           C   tau(   8) = (  -0.2000000   0.4618802   0.0000000  )
         9           C   tau(   9) = (  -0.3000000   0.5196152   0.0000000  )
        10           C   tau(  10) = (  -0.3000000   0.6350853   0.0000000  )
        11           C   tau(  11) = (  -0.4000000   0.6928203   0.0000000  )
        12           C   tau(  12) = (  -0.4000000   0.8082904   0.0000000  )
        13           C   tau(  13) = (   0.2000000   0.0000000   0.0000000  )
        14           C   tau(  14) = (   0.2000000   0.1154701   0.0000000  )
        15           C   tau(  15) = (   0.1000000   0.1732051   0.0000000  )
        16           C   tau(  16) = (   0.1000000   0.2886751   0.0000000  )
        17           C   tau(  17) = (   0.0000000   0.3464102   0.0000000  )
        18           C   tau(  18) = (   0.0000000   0.4618802   0.0000000  )
        19           C   tau(  19) = (  -0.1000000   0.5196152   0.0000000  )
        20           C   tau(  20) = (  -0.1000000   0.6350853   0.0000000  )
        21           C   tau(  21) = (  -0.2000000   0.6928203   0.0000000  )
        22           C   tau(  22) = (  -0.2000000   0.8082904   0.0000000  )
        23           C   tau(  23) = (   0.4000000   0.0000000   0.0000000  )
        24           C   tau(  24) = (   0.4000000   0.1154701   0.0000000  )
        25           C   tau(  25) = (   0.3000000   0.1732051   0.0000000  )
        26           C   tau(  26) = (   0.3000000   0.2886751   0.0000000  )
        27           C   tau(  27) = (   0.2000000   0.3464102   0.0000000  )
        28           V   tau(  28) = (   0.2000000   0.4618802   0.0000000  )
        29           C   tau(  29) = (   0.1000000   0.5196152   0.0000000  )
        30           C   tau(  30) = (   0.1000000   0.6350853   0.0000000  )
        31           C   tau(  31) = (   0.0000000   0.6928203   0.0000000  )
        32           C   tau(  32) = (   0.0000000   0.8082904   0.0000000  )
        33           C   tau(  33) = (   0.6000000   0.0000000   0.0000000  )
        34           C   tau(  34) = (   0.6000000   0.1154701   0.0000000  )
        35           C   tau(  35) = (   0.5000000   0.1732051   0.0000000  )
        36           C   tau(  36) = (   0.5000000   0.2886751   0.0000000  )
        37           C   tau(  37) = (   0.4000000   0.3464102   0.0000000  )
        38           C   tau(  38) = (   0.4000000   0.4618802   0.0000000  )
        39           C   tau(  39) = (   0.3000000   0.5196152   0.0000000  )
        40           C   tau(  40) = (   0.3000000   0.6350853   0.0000000  )
        41           C   tau(  41) = (   0.2000000   0.6928203   0.0000000  )
        42           C   tau(  42) = (   0.2000000   0.8082904   0.0000000  )
        43           C   tau(  43) = (   0.8000000   0.0000000   0.0000000  )
        44           C   tau(  44) = (   0.8000000   0.1154701   0.0000000  )
        45           C   tau(  45) = (   0.7000000   0.1732051   0.0000000  )
        46           C   tau(  46) = (   0.7000000   0.2886751   0.0000000  )
        47           C   tau(  47) = (   0.6000000   0.3464102   0.0000000  )
        48           C   tau(  48) = (   0.6000000   0.4618802   0.0000000  )
        49           C   tau(  49) = (   0.5000000   0.5196152   0.0000000  )
        50           C   tau(  50) = (   0.5000000   0.6350853   0.0000000  )
        51           C   tau(  51) = (   0.4000000   0.6928203   0.0000000  )
        52           C   tau(  52) = (   0.4000000   0.8082904   0.0000000  )

   Crystallographic axes

     site n.     atom                  positions (cryst. coord.)
         1           H   tau(   1) = (  0.4694937  0.5000000  0.2600000  )
         2           H   tau(   2) = (  0.5305063  0.5000000  0.2600000  )
         3           C   tau(   3) = (  0.0000000  0.0000000  0.0000000  )
         4           C   tau(   4) = (  0.0666667  0.1333333  0.0000000  )
         5           C   tau(   5) = (  0.0000000  0.2000000  0.0000000  )
         6           C   tau(   6) = (  0.0666667  0.3333333  0.0000000  )
         7           C   tau(   7) = (  0.0000000  0.4000000  0.0000000  )
         8           C   tau(   8) = (  0.0666667  0.5333333  0.0000000  )
         9           C   tau(   9) = (  0.0000000  0.6000000  0.0000000  )
        10           C   tau(  10) = (  0.0666667  0.7333333  0.0000000  )
        11           C   tau(  11) = (  0.0000000  0.8000000  0.0000000  )
        12           C   tau(  12) = (  0.0666667  0.9333333  0.0000000  )
        13           C   tau(  13) = (  0.2000000  0.0000000  0.0000000  )
        14           C   tau(  14) = (  0.2666667  0.1333333  0.0000000  )
        15           C   tau(  15) = (  0.2000000  0.2000000  0.0000000  )
        16           C   tau(  16) = (  0.2666667  0.3333333  0.0000000  )
        17           C   tau(  17) = (  0.2000000  0.4000000  0.0000000  )
        18           C   tau(  18) = (  0.2666667  0.5333333  0.0000000  )
        19           C   tau(  19) = (  0.2000000  0.6000000  0.0000000  )
        20           C   tau(  20) = (  0.2666667  0.7333333  0.0000000  )
        21           C   tau(  21) = (  0.2000000  0.8000000  0.0000000  )
        22           C   tau(  22) = (  0.2666667  0.9333333  0.0000000  )
        23           C   tau(  23) = (  0.4000000  0.0000000  0.0000000  )
        24           C   tau(  24) = (  0.4666667  0.1333333  0.0000000  )
        25           C   tau(  25) = (  0.4000000  0.2000000  0.0000000  )
        26           C   tau(  26) = (  0.4666667  0.3333333  0.0000000  )
        27           C   tau(  27) = (  0.4000000  0.4000000  0.0000000  )
        28           V   tau(  28) = (  0.4666667  0.5333333  0.0000000  )
        29           C   tau(  29) = (  0.4000000  0.6000000  0.0000000  )
        30           C   tau(  30) = (  0.4666667  0.7333333  0.0000000  )
        31           C   tau(  31) = (  0.4000000  0.8000000  0.0000000  )
        32           C   tau(  32) = (  0.4666667  0.9333333  0.0000000  )
        33           C   tau(  33) = (  0.6000000  0.0000000  0.0000000  )
        34           C   tau(  34) = (  0.6666667  0.1333333  0.0000000  )
        35           C   tau(  35) = (  0.6000000  0.2000000  0.0000000  )
        36           C   tau(  36) = (  0.6666667  0.3333333  0.0000000  )
        37           C   tau(  37) = (  0.6000000  0.4000000  0.0000000  )
        38           C   tau(  38) = (  0.6666667  0.5333333  0.0000000  )
        39           C   tau(  39) = (  0.6000000  0.6000000  0.0000000  )
        40           C   tau(  40) = (  0.6666667  0.7333333  0.0000000  )
        41           C   tau(  41) = (  0.6000000  0.8000000  0.0000000  )
        42           C   tau(  42) = (  0.6666667  0.9333333  0.0000000  )
        43           C   tau(  43) = (  0.8000000  0.0000000  0.0000000  )
        44           C   tau(  44) = (  0.8666667  0.1333333  0.0000000  )
        45           C   tau(  45) = (  0.8000000  0.2000000  0.0000000  )
        46           C   tau(  46) = (  0.8666667  0.3333333  0.0000000  )
        47           C   tau(  47) = (  0.8000000  0.4000000  0.0000000  )
        48           C   tau(  48) = (  0.8666667  0.5333333  0.0000000  )
        49           C   tau(  49) = (  0.8000000  0.6000000  0.0000000  )
        50           C   tau(  50) = (  0.8666667  0.7333333  0.0000000  )
        51           C   tau(  51) = (  0.8000000  0.8000000  0.0000000  )
        52           C   tau(  52) = (  0.8666667  0.9333333  0.0000000  )

     number of k points=     1  Marzari-Vanderbilt smearing, width (Ry)=  0.0010
                       cart. coord. in units 2pi/alat
        k(    1) = (   0.0000000   0.0000000   0.0000000), wk =   2.0000000

                       cryst. coord.
        k(    1) = (   0.0000000   0.0000000   0.0000000), wk =   2.0000000

     Dense  grid:  1626001 G-vectors     FFT dimensions: ( 180, 180, 135)

     Smooth grid:   702581 G-vectors     FFT dimensions: ( 125, 125, 108)

     Dynamical RAM for                 wfc:      28.36 MB

     Dynamical RAM for     wfc (w. buffer):      28.36 MB

     Dynamical RAM for           str. fact:      12.41 MB

     Dynamical RAM for           local pot:       0.00 MB

     Dynamical RAM for          nlocal pot:      92.46 MB

     Dynamical RAM for                qrad:      19.73 MB

     Dynamical RAM for          rho,v,vnew:      29.46 MB

     Dynamical RAM for               rhoin:       9.82 MB

     Dynamical RAM for            rho*nmix:      66.16 MB

     Dynamical RAM for           G-vectors:      16.40 MB

     Dynamical RAM for          h,s,v(r/c):      11.81 MB

     Dynamical RAM for          <psi|beta>:       0.80 MB

     Dynamical RAM for                 psi:     113.46 MB

     Dynamical RAM for                hpsi:     113.46 MB

     Dynamical RAM for                spsi:     113.46 MB

     Dynamical RAM for      wfcinit/wfcrot:      93.90 MB

     Dynamical RAM for           addusdens:     971.75 MB

     Estimated static dynamical RAM per process >     319.78 MB

     Estimated max dynamical RAM per process >       1.26 GB

     Estimated total dynamical RAM >       7.57 GB

     Check: negative core charge=   -0.000002

     Initial potential from superposition of free atoms

     starting charge  210.80465, renormalised to  211.00000

     negative rho (up, down):  1.240E-04 0.000E+00


---------------------------------------------------------------------------------
Carrying out rVV10 run using the following parameters:
Nqs =      20    Nr_points =    1024   r_max =   100.000
b_value =  6.30000    beta =  0.00901
     q_mesh =  0.00010000  0.00030000  0.00058939  0.00100810
               0.00161396  0.00249058  0.00375900  0.00559430
               0.00824984  0.01209221  0.01765183  0.02569619
               0.03733578  0.05417739  0.07854596  0.11380545
               0.16482331  0.23864234  0.34545298  0.50000000

Gradients computed in Reciprocal space

---------------------------------------------------------------------------------


     Starting wfcs are  208 randomized atomic wfcs

     total cpu time spent up to now is       50.8 secs

     Self-consistent Calculation

     iteration #  1     ecut=    70.00 Ry     beta= 0.70
     Davidson diagonalization with overlap
     ethr =  1.00E-02,  avg # of iterations =  3.0

     negative rho (up, down):  2.555E-04 0.000E+00

     total cpu time spent up to now is      124.2 secs

     total energy              =    -752.77791793 Ry
     Harris-Foulkes estimate   =    -760.56817283 Ry
     estimated scf accuracy    <      10.81141916 Ry

     iteration #  2     ecut=    70.00 Ry     beta= 0.70
     Davidson diagonalization with overlap
     ethr =  5.12E-03,  avg # of iterations =  6.0

     negative rho (up, down):  1.584E-03 0.000E+00

     total cpu time spent up to now is      196.0 secs

     total energy              =    -747.60753096 Ry
     Harris-Foulkes estimate   =    -770.42274455 Ry
     estimated scf accuracy    <      78.41131517 Ry

     iteration #  3     ecut=    70.00 Ry     beta= 0.70
     Davidson diagonalization with overlap
     ethr =  5.12E-03,  avg # of iterations =  6.0

     negative rho (up, down):  1.443E-02 0.000E+00

     total cpu time spent up to now is      287.4 secs

     total energy              =    -756.15522594 Ry
     Harris-Foulkes estimate   =    -758.10593434 Ry
     estimated scf accuracy    <       6.01746966 Ry

     iteration #  4     ecut=    70.00 Ry     beta= 0.70
     Davidson diagonalization with overlap
     ethr =  2.85E-03,  avg # of iterations =  3.0

     negative rho (up, down):  4.978E-02 0.000E+00

     total cpu time spent up to now is      347.7 secs

     total energy              =    -756.97087206 Ry
     Harris-Foulkes estimate   =    -757.62956195 Ry
     estimated scf accuracy    <       1.69067816 Ry

     iteration #  5     ecut=    70.00 Ry     beta= 0.70
     Davidson diagonalization with overlap
     ethr =  8.01E-04,  avg # of iterations =  7.0

     negative rho (up, down):  5.466E-02 0.000E+00

     total cpu time spent up to now is      410.2 secs

     total energy              =    -757.27086016 Ry
     Harris-Foulkes estimate   =    -757.32722344 Ry
     estimated scf accuracy    <       0.21280818 Ry

     iteration #  6     ecut=    70.00 Ry     beta= 0.70
     Davidson diagonalization with overlap
     ethr =  1.01E-04,  avg # of iterations =  5.0

     negative rho (up, down):  3.748E-02 0.000E+00

     total cpu time spent up to now is      470.3 secs

     total energy              =    -757.29881027 Ry
     Harris-Foulkes estimate   =    -757.30544004 Ry
     estimated scf accuracy    <       0.06159007 Ry

     iteration #  7     ecut=    70.00 Ry     beta= 0.70
     Davidson diagonalization with overlap
     ethr =  2.92E-05,  avg # of iterations =  9.0

     negative rho (up, down):  3.833E-02 0.000E+00

     total cpu time spent up to now is      538.4 secs

     total energy              =    -757.31367106 Ry
     Harris-Foulkes estimate   =    -757.32633265 Ry
     estimated scf accuracy    <       0.07578278 Ry

     iteration #  8     ecut=    70.00 Ry     beta= 0.70
     Davidson diagonalization with overlap
     ethr =  2.92E-05,  avg # of iterations =  3.0

     negative rho (up, down):  2.977E-02 0.000E+00

     total cpu time spent up to now is      596.4 secs

     total energy              =    -757.32714033 Ry
     Harris-Foulkes estimate   =    -757.32377767 Ry
     estimated scf accuracy    <       0.01263845 Ry

     iteration #  9     ecut=    70.00 Ry     beta= 0.70
     Davidson diagonalization with overlap
     ethr =  5.99E-06,  avg # of iterations = 10.0

     negative rho (up, down):  3.573E-02 0.000E+00

     total cpu time spent up to now is      666.0 secs

     total energy              =    -757.32807922 Ry
     Harris-Foulkes estimate   =    -757.33349608 Ry
     estimated scf accuracy    <       0.02478240 Ry

     iteration # 10     ecut=    70.00 Ry     beta= 0.70
     Davidson diagonalization with overlap
     ethr =  5.99E-06,  avg # of iterations = 12.0

     negative rho (up, down):  3.667E-02 0.000E+00

     total cpu time spent up to now is      726.1 secs

     total energy              =    -757.32901457 Ry
     Harris-Foulkes estimate   =    -757.33103054 Ry
     estimated scf accuracy    <       0.01872473 Ry

     iteration # 11     ecut=    70.00 Ry     beta= 0.70
     Davidson diagonalization with overlap
     ethr =  5.99E-06,  avg # of iterations =  2.0

     negative rho (up, down):  3.527E-02 0.000E+00

     total cpu time spent up to now is      780.4 secs

     total energy              =    -757.33035883 Ry
     Harris-Foulkes estimate   =    -757.32997928 Ry
     estimated scf accuracy    <       0.00565324 Ry

     iteration # 12     ecut=    70.00 Ry     beta= 0.70
     Davidson diagonalization with overlap
     ethr =  2.68E-06,  avg # of iterations = 10.0

     negative rho (up, down):  3.401E-02 0.000E+00

     total cpu time spent up to now is      840.6 secs

     total energy              =    -757.33149852 Ry
     Harris-Foulkes estimate   =    -757.33085813 Ry
     estimated scf accuracy    <       0.00365957 Ry

     iteration # 13     ecut=    70.00 Ry     beta= 0.70
     Davidson diagonalization with overlap
     ethr =  1.73E-06,  avg # of iterations =  8.0

     negative rho (up, down):  3.343E-02 0.000E+00

     total cpu time spent up to now is      899.6 secs

     total energy              =    -757.33227841 Ry
     Harris-Foulkes estimate   =    -757.33169089 Ry
     estimated scf accuracy    <       0.00053097 Ry

     iteration # 14     ecut=    70.00 Ry     beta= 0.70
     Davidson diagonalization with overlap
     ethr =  2.52E-07,  avg # of iterations =  4.0

     negative rho (up, down):  3.374E-02 0.000E+00

     total cpu time spent up to now is      957.8 secs

     total energy              =    -757.33231210 Ry
     Harris-Foulkes estimate   =    -757.33234664 Ry
     estimated scf accuracy    <       0.00036104 Ry

     iteration # 15     ecut=    70.00 Ry     beta= 0.70
     Davidson diagonalization with overlap
     ethr =  1.71E-07,  avg # of iterations =  2.0

     negative rho (up, down):  3.386E-02 0.000E+00

     total cpu time spent up to now is     1012.6 secs

     total energy              =    -757.33238948 Ry
     Harris-Foulkes estimate   =    -757.33234302 Ry
     estimated scf accuracy    <       0.00010430 Ry

     iteration # 16     ecut=    70.00 Ry     beta= 0.70
     Davidson diagonalization with overlap
     ethr =  4.94E-08,  avg # of iterations =  3.0

     negative rho (up, down):  3.401E-02 0.000E+00

     total cpu time spent up to now is     1069.1 secs

     total energy              =    -757.33240504 Ry
     Harris-Foulkes estimate   =    -757.33240236 Ry
     estimated scf accuracy    <       0.00004109 Ry

     iteration # 17     ecut=    70.00 Ry     beta= 0.70
     Davidson diagonalization with overlap
     ethr =  1.95E-08,  avg # of iterations =  1.0

     negative rho (up, down):  3.406E-02 0.000E+00

     total cpu time spent up to now is     1123.9 secs

     total energy              =    -757.33240782 Ry
     Harris-Foulkes estimate   =    -757.33240709 Ry
     estimated scf accuracy    <       0.00000150 Ry

     iteration # 18     ecut=    70.00 Ry     beta= 0.70
     Davidson diagonalization with overlap
     ethr =  7.10E-10,  avg # of iterations =  4.0

     negative rho (up, down):  3.410E-02 0.000E+00

     total cpu time spent up to now is     1190.8 secs

     total energy              =    -757.33240807 Ry
     Harris-Foulkes estimate   =    -757.33240848 Ry
     estimated scf accuracy    <       0.00000107 Ry

     iteration # 19     ecut=    70.00 Ry     beta= 0.70
     Davidson diagonalization with overlap
     ethr =  5.08E-10,  avg # of iterations =  3.0

     negative rho (up, down):  3.413E-02 0.000E+00

     total cpu time spent up to now is     1251.0 secs

     End of self-consistent calculation

          k = 0.0000 0.0000 0.0000 ( 87777 PWs)   bands (ev):

   -62.7300 -37.8340 -37.8290 -36.4576 -19.6098 -18.7674 -18.7663 -18.6975
   -18.6571 -18.6524 -18.2093 -16.9152 -16.9143 -16.9118 -16.7708 -16.7691
   -16.4949 -16.0559 -16.0548 -15.9675 -15.8093 -15.8076 -15.0606 -13.8620
   -13.8564 -13.8539 -13.8437 -13.8434 -13.1201 -12.8988 -12.8982 -12.8784
   -12.4876 -12.4857 -12.0898 -11.6221 -11.6217 -11.5000 -11.1192 -11.1184
   -10.1305  -9.3144  -9.3136  -9.2353  -9.1597  -9.1593  -9.0740  -9.0471
    -9.0465  -9.0332  -8.4468  -8.4457  -7.8808  -7.8741  -7.8673  -7.8335
    -7.6577  -7.5785  -7.2348  -7.2336  -6.9114  -6.8878  -6.8660  -6.6694
    -6.6692  -6.6557  -6.5710  -6.5699  -6.5246  -6.4168  -6.4149  -6.3730
    -6.3697  -6.3688  -6.3154  -6.1766  -5.2410  -5.2408  -5.1013  -5.0869
    -4.9266  -4.9247  -4.8172  -4.7296  -4.5870  -4.5723  -4.5695  -4.1981
    -3.9462  -3.9451  -3.7108  -3.7095  -3.6230  -3.5933  -3.4811  -3.4806
    -2.8398  -2.2139  -2.2123  -2.1712  -2.1702  -1.6879  -1.6620  -1.6600
    -0.5021  -0.1137  -0.1135   1.0921   1.0982   1.1044   1.1995   1.8564
     2.0975   2.0980   2.5541   2.9378   2.9446   3.0082   3.2288   3.4888
     3.7055   3.7660   3.7782   3.8326   3.9553   4.0421   4.0497

     occupation numbers 
     1.0000   1.0000   1.0000   1.0000   1.0000   1.0000   1.0000   1.0000
     1.0000   1.0000   1.0000   1.0000   1.0000   1.0000   1.0000   1.0000
     1.0000   1.0000   1.0000   1.0000   1.0000   1.0000   1.0000   1.0000
     1.0000   1.0000   1.0000   1.0000   1.0000   1.0000   1.0000   1.0000
     1.0000   1.0000   1.0000   1.0000   1.0000   1.0000   1.0000   1.0000
     1.0000   1.0000   1.0000   1.0000   1.0000   1.0000   1.0000   1.0000
     1.0000   1.0000   1.0000   1.0000   1.0000   1.0000   1.0000   1.0000
     1.0000   1.0000   1.0000   1.0000   1.0000   1.0000   1.0000   1.0000
     1.0000   1.0000   1.0000   1.0000   1.0000   1.0000   1.0000   1.0000
     1.0000   1.0000   1.0000   1.0000   1.0000   1.0000   1.0000   1.0000
     1.0000   1.0000   1.0000   1.0000   1.0000   1.0000   1.0000   1.0000
     1.0000   1.0000   1.0000   1.0000   1.0000   1.0000   1.0000   1.0000
     1.0000   1.0000   1.0000   1.0000   1.0000   1.0000   1.0000   1.0000
     1.0000   0.2538   0.2462   0.0000   0.0000   0.0000   0.0000   0.0000
     0.0000   0.0000   0.0000   0.0000   0.0000   0.0000   0.0000   0.0000
     0.0000   0.0000   0.0000   0.0000   0.0000   0.0000   0.0000

     the Fermi energy is    -0.1169 ev

!    total energy              =    -757.33240791 Ry
     Harris-Foulkes estimate   =    -757.33240832 Ry
     estimated scf accuracy    <       0.00000051 Ry

     The total energy is the sum of the following terms:

     one-electron contribution =   -2594.64513708 Ry
     hartree contribution      =    1344.23044219 Ry
     xc contribution           =    -252.67517805 Ry
     ewald contribution        =     745.75807847 Ry
     smearing contrib. (-TS)   =      -0.00061344 Ry

     convergence has been achieved in  19 iterations

     Writing output data file vanadio-bridge2-distance-2.6.save/

     init_run     :     48.24s CPU     49.54s WALL (       1 calls)
     electrons    :   1167.47s CPU   1200.40s WALL (       1 calls)

     Called by init_run:
     wfcinit      :     22.69s CPU     22.89s WALL (       1 calls)
     wfcinit:atom :      0.02s CPU      0.05s WALL (       1 calls)
     wfcinit:wfcr :     22.49s CPU     22.63s WALL (       1 calls)
     potinit      :     11.45s CPU     11.91s WALL (       1 calls)
     hinit0       :      8.99s CPU      9.03s WALL (       1 calls)

     Called by electrons:
     c_bands      :    730.02s CPU    734.15s WALL (      19 calls)
     sum_band     :    217.01s CPU    227.93s WALL (      19 calls)
     v_of_rho     :    132.28s CPU    140.15s WALL (      20 calls)
     v_h          :      1.49s CPU      1.53s WALL (      20 calls)
     v_xc         :    130.79s CPU    138.62s WALL (      20 calls)
     newd         :     92.94s CPU    103.77s WALL (      20 calls)
     mix_rho      :      4.06s CPU      4.15s WALL (      19 calls)

     Called by c_bands:
     init_us_2    :      1.83s CPU      1.87s WALL (      39 calls)
     cegterg      :    725.40s CPU    729.50s WALL (      19 calls)

     Called by sum_band:
     sum_band:bec :      0.02s CPU      0.02s WALL (      19 calls)
     addusdens    :    135.38s CPU    145.77s WALL (      19 calls)

     Called by *egterg:
     h_psi        :    370.22s CPU    373.16s WALL (     121 calls)
     s_psi        :    121.60s CPU    121.70s WALL (     121 calls)
     g_psi        :      0.39s CPU      0.39s WALL (     101 calls)
     cdiaghg      :     10.51s CPU     10.52s WALL (     120 calls)
     cegterg:over :    100.18s CPU    100.25s WALL (     101 calls)
     cegterg:upda :     64.51s CPU     64.87s WALL (     101 calls)
     cegterg:last :     39.02s CPU     39.04s WALL (      19 calls)

     Called by h_psi:
     h_psi:pot    :    369.75s CPU    372.14s WALL (     121 calls)
     h_psi:calbec :    123.41s CPU    123.51s WALL (     121 calls)
     vloc_psi     :    124.98s CPU    127.22s WALL (     121 calls)
     add_vuspsi   :    121.35s CPU    121.41s WALL (     121 calls)

     General routines
     calbec       :    172.59s CPU    172.71s WALL (     140 calls)
     fft          :     76.54s CPU     79.57s WALL (    1258 calls)
     ffts         :      0.79s CPU      0.81s WALL (      39 calls)
     fftw         :    131.22s CPU    133.65s WALL (   14633 calls)
     interpolate  :      1.81s CPU      1.86s WALL (      20 calls)

     Parallel routines
     fft_scatt_xy :     36.12s CPU     36.56s WALL (   15930 calls)
     fft_scatt_yz :     72.36s CPU     76.33s WALL (   15930 calls)

     PWSCF        :  20m17.01s CPU  20m51.68s WALL


   This run was terminated on:   5:29:16  31Aug2022            

=------------------------------------------------------------------------------=
   JOB DONE.
=------------------------------------------------------------------------------=
