
     Program PWSCF v.6.4.1 starts on 12May2022 at 16:38:19 

     This program is part of the open-source Quantum ESPRESSO suite
     for quantum simulation of materials; please cite
         "P. Giannozzi et al., J. Phys.:Condens. Matter 21 395502 (2009);
         "P. Giannozzi et al., J. Phys.:Condens. Matter 29 465901 (2017);
          URL http://www.quantum-espresso.org", 
     in publications or presentations arising from this work. More details at
     http://www.quantum-espresso.org/quote

     Parallel version (MPI), running on     6 processors

     MPI processes distributed on     1 nodes
     R & G space division:  proc/nbgrp/npool/nimage =       6
     Reading input from gr-cu.in

     Current dimensions of program PWSCF are:
     Max number of different atomic species (ntypx) = 10
     Max number of k-points (npk) =  40000
     Max angular momentum in pseudopotentials (lmaxx) =  3
               file H.pbe-rrkjus.UPF: wavefunction(s)  1S renormalized
               file H.pbe-rrkjus.UPF: wavefunction(s)  1S renormalized
               file Cu.pbe-dn-rrkjus_psl.1.0.0.UPF: wavefunction(s)  3D renormalized

     --------------------------------------------
     Parameters for DFT-D3 Dispersion Correction:
     --------------------------------------------
       Reference C6 values for interpolation: 

         atom   Coordination number   C6
         H1         0.912             6.05
         H1         0.000            15.18
         H2         0.912             6.05
         H2         0.000            15.18
         C          0.000            98.23
         C          0.987            86.49
         C          1.998            58.72
         C          2.999            51.56
         C          3.984            36.41
         Cu         0.000           674.36
         Cu         0.958           349.99

       Values used:

         atom   Coordination number  R0_AB[au]  C6      C8
         H1         0.943            2.062      6.25     75.50
         H2         0.923            2.062      6.28     75.87
         Cu         5.159            3.119    349.99  28675.33
         C          3.308            2.750     48.42   1400.30
         C          3.308            2.750     48.41   1400.23
         C          3.308            2.750     48.42   1400.26
         C          3.308            2.750     48.41   1400.01
         C          3.308            2.750     48.42   1400.26
         C          3.308            2.750     48.41   1400.23
         C          3.308            2.750     48.42   1400.30
         C          3.308            2.750     48.42   1400.31
         C          3.308            2.750     48.42   1400.30
         C          3.308            2.750     48.42   1400.31
         C          3.308            2.750     48.42   1400.30
         C          3.308            2.750     48.41   1400.01
         C          3.309            2.750     48.38   1399.25
         C          3.578            2.750     41.11   1188.83
         C          3.356            2.750     47.35   1369.56
         C          3.578            2.750     41.10   1188.79
         C          3.309            2.750     48.38   1399.24
         C          3.308            2.750     48.41   1400.01
         C          3.308            2.750     48.42   1400.30
         C          3.308            2.750     48.42   1400.31
         C          3.308            2.750     48.42   1400.30
         C          3.308            2.750     48.41   1400.23
         C          3.309            2.750     48.38   1399.25
         C          3.578            2.750     41.11   1188.83
         C          3.310            2.750     48.37   1398.98
         C          3.311            2.750     48.36   1398.53
         C          3.578            2.750     41.10   1188.63
         C          3.309            2.750     48.38   1399.24
         C          3.308            2.750     48.41   1400.23
         C          3.308            2.750     48.42   1400.26
         C          3.308            2.750     48.42   1400.31
         C          3.308            2.750     48.42   1400.26
         C          3.308            2.750     48.41   1400.01
         C          3.356            2.750     47.35   1369.56
         C          3.578            2.750     41.10   1188.79
         C          3.311            2.750     48.36   1398.53
         C          3.578            2.750     41.10   1188.63
         C          3.356            2.750     47.35   1369.44
         C          3.308            2.750     48.41   1400.00
         C          3.308            2.750     48.42   1400.26
         C          3.308            2.750     48.42   1400.31
         C          3.308            2.750     48.42   1400.31
         C          3.308            2.750     48.42   1400.31
         C          3.308            2.750     48.42   1400.26
         C          3.308            2.750     48.41   1400.23
         C          3.309            2.750     48.38   1399.24
         C          3.308            2.750     48.41   1400.01
         C          3.309            2.750     48.38   1399.24
         C          3.308            2.750     48.41   1400.23

         Molecular C6 ( Ry / a.u.^6 ) =    129871.97


     Subspace diagonalization in iterative solution of the eigenvalue problem:
     a serial algorithm will be used


     Parallelization info
     --------------------
     sticks:   dense  smooth     PW     G-vecs:    dense   smooth      PW
     Min        3051    1746    452               270999   117096   15472
     Max        3053    1747    453               271001   117099   15475
     Sum       18313   10477   2713              1626001   702581   92835



     bravais-lattice index     =            4
     lattice parameter (alat)  =      23.2937  a.u.
     unit-cell volume          =    8879.8548 (a.u.)^3
     number of atoms/cell      =           52
     number of atomic types    =            4
     number of electrons       =       209.00
     number of Kohn-Sham states=          126
     kinetic-energy cutoff     =      70.0000  Ry
     charge density cutoff     =     490.0000  Ry
     convergence threshold     =      1.0E-06
     mixing beta               =       0.3000
     number of iterations used =            8  plain     mixing
     Exchange-correlation      = PBE ( 1  4  3  4 0 0)
     nstep                     =           50


     celldm(1)=  23.293684  celldm(2)=   0.000000  celldm(3)=   0.811261
     celldm(4)=   0.000000  celldm(5)=   0.000000  celldm(6)=   0.000000

     crystal axes: (cart. coord. in units of alat)
               a(1) = (   1.000000   0.000000   0.000000 )  
               a(2) = (  -0.500000   0.866025   0.000000 )  
               a(3) = (   0.000000   0.000000   0.811261 )  

     reciprocal axes: (cart. coord. in units 2 pi/alat)
               b(1) = (  1.000000  0.577350 -0.000000 )  
               b(2) = (  0.000000  1.154701  0.000000 )  
               b(3) = (  0.000000 -0.000000  1.232649 )  


     PseudoPot. # 1 for H  read from file:
     /home/cristian/Escritorio/Proyecto_Grafeno/pseudopotenciales/H.pbe-rrkjus.UPF
     MD5 check sum: 7cc9d459525c9a0585f487a71c3c9563
     Pseudo is Ultrasoft, Zval =  1.0
     Generated by new atomic code, or converted to UPF format
     Using radial grid of 1061 points,  2 beta functions with: 
                l(1) =   0
                l(2) =   0
     Q(r) pseudized with 0 coefficients 


     PseudoPot. # 2 for H  read from file:
     /home/cristian/Escritorio/Proyecto_Grafeno/pseudopotenciales/H.pbe-rrkjus.UPF
     MD5 check sum: 7cc9d459525c9a0585f487a71c3c9563
     Pseudo is Ultrasoft, Zval =  1.0
     Generated by new atomic code, or converted to UPF format
     Using radial grid of 1061 points,  2 beta functions with: 
                l(1) =   0
                l(2) =   0
     Q(r) pseudized with 0 coefficients 


     PseudoPot. # 3 for Cu read from file:
     /home/cristian/Escritorio/Proyecto_Grafeno/pseudopotenciales/Cu.pbe-dn-rrkjus_psl.1.0.0.UPF
     MD5 check sum: ba3d6c84e19846e79d48cdc68ff7152b
     Pseudo is Ultrasoft + core correction, Zval = 11.0
     Generated using "atomic" code by A. Dal Corso v.6.3
     Using radial grid of 1199 points,  6 beta functions with: 
                l(1) =   0
                l(2) =   0
                l(3) =   1
                l(4) =   1
                l(5) =   2
                l(6) =   2
     Q(r) pseudized with 0 coefficients 


     PseudoPot. # 4 for C  read from file:
     /home/cristian/Escritorio/Proyecto_Grafeno/pseudopotenciales/C.pbe-n-rrkjus_psl.1.0.0.UPF
     MD5 check sum: 1fdd950c42eb37d8afe3dd2f8d12311e
     Pseudo is Ultrasoft + core correction, Zval =  4.0
     Generated using "atomic" code by A. Dal Corso v.6.3MaX
     Using radial grid of 1073 points,  4 beta functions with: 
                l(1) =   0
                l(2) =   0
                l(3) =   1
                l(4) =   1
     Q(r) pseudized with 0 coefficients 


     atomic species   valence    mass     pseudopotential
        H1             1.00     1.00794     H ( 1.00)
        H2             1.00     1.00794     H ( 1.00)
        Cu            11.00    63.54600     Cu( 1.00)
        C              4.00    12.01070     C ( 1.00)

     No symmetry found



   Cartesian axes

     site n.     atom                  positions (alat units)
         1           H1  tau(   1) = (   0.2000000   0.4617962   0.1784775  )
         2           H2  tau(   2) = (   0.2000000   0.5228088   0.1784775  )
         3           Cu  tau(   3) = (   0.2000000   0.4618802   0.0000000  )
         4           C   tau(   4) = (   0.0000000   0.0000000   0.0000000  )
         5           C   tau(   5) = (   0.0000000   0.1154701   0.0000000  )
         6           C   tau(   6) = (  -0.1000000   0.1732051   0.0000000  )
         7           C   tau(   7) = (  -0.1000000   0.2886751   0.0000000  )
         8           C   tau(   8) = (  -0.2000000   0.3464102   0.0000000  )
         9           C   tau(   9) = (  -0.2000000   0.4618802   0.0000000  )
        10           C   tau(  10) = (  -0.3000000   0.5196152   0.0000000  )
        11           C   tau(  11) = (  -0.3000000   0.6350853   0.0000000  )
        12           C   tau(  12) = (  -0.4000000   0.6928203   0.0000000  )
        13           C   tau(  13) = (  -0.4000000   0.8082904   0.0000000  )
        14           C   tau(  14) = (   0.2000000   0.0000000   0.0000000  )
        15           C   tau(  15) = (   0.2000000   0.1154701   0.0000000  )
        16           C   tau(  16) = (   0.1000000   0.1732051   0.0000000  )
        17           C   tau(  17) = (   0.1000000   0.2886751   0.0000000  )
        18           C   tau(  18) = (   0.0000000   0.3464102   0.0000000  )
        19           C   tau(  19) = (   0.0000000   0.4618802   0.0000000  )
        20           C   tau(  20) = (  -0.1000000   0.5196152   0.0000000  )
        21           C   tau(  21) = (  -0.1000000   0.6350853   0.0000000  )
        22           C   tau(  22) = (  -0.2000000   0.6928203   0.0000000  )
        23           C   tau(  23) = (  -0.2000000   0.8082904   0.0000000  )
        24           C   tau(  24) = (   0.4000000   0.0000000   0.0000000  )
        25           C   tau(  25) = (   0.4000000   0.1154701   0.0000000  )
        26           C   tau(  26) = (   0.3000000   0.1732051   0.0000000  )
        27           C   tau(  27) = (   0.3000000   0.2886751   0.0000000  )
        28           C   tau(  28) = (   0.2000000   0.3464102   0.0000000  )
        29           C   tau(  29) = (   0.1000000   0.5196152   0.0000000  )
        30           C   tau(  30) = (   0.1000000   0.6350853   0.0000000  )
        31           C   tau(  31) = (   0.0000000   0.6928203   0.0000000  )
        32           C   tau(  32) = (   0.0000000   0.8082904   0.0000000  )
        33           C   tau(  33) = (   0.6000000   0.0000000   0.0000000  )
        34           C   tau(  34) = (   0.6000000   0.1154701   0.0000000  )
        35           C   tau(  35) = (   0.5000000   0.1732051   0.0000000  )
        36           C   tau(  36) = (   0.5000000   0.2886751   0.0000000  )
        37           C   tau(  37) = (   0.4000000   0.3464102   0.0000000  )
        38           C   tau(  38) = (   0.4000000   0.4618802   0.0000000  )
        39           C   tau(  39) = (   0.3000000   0.5196152   0.0000000  )
        40           C   tau(  40) = (   0.3000000   0.6350853   0.0000000  )
        41           C   tau(  41) = (   0.2000000   0.6928203   0.0000000  )
        42           C   tau(  42) = (   0.2000000   0.8082904   0.0000000  )
        43           C   tau(  43) = (   0.8000000   0.0000000   0.0000000  )
        44           C   tau(  44) = (   0.8000000   0.1154701   0.0000000  )
        45           C   tau(  45) = (   0.7000000   0.1732051   0.0000000  )
        46           C   tau(  46) = (   0.7000000   0.2886751   0.0000000  )
        47           C   tau(  47) = (   0.6000000   0.3464102   0.0000000  )
        48           C   tau(  48) = (   0.6000000   0.4618802   0.0000000  )
        49           C   tau(  49) = (   0.5000000   0.5196152   0.0000000  )
        50           C   tau(  50) = (   0.5000000   0.6350853   0.0000000  )
        51           C   tau(  51) = (   0.4000000   0.6928203   0.0000000  )
        52           C   tau(  52) = (   0.4000000   0.8082904   0.0000000  )

     number of k points=     4  Marzari-Vanderbilt smearing, width (Ry)=  0.0010
                       cart. coord. in units 2pi/alat
        k(    1) = (   0.0000000   0.0000000   0.0000000), wk =   0.5000000
        k(    2) = (   0.0000000  -0.5773503   0.0000000), wk =   0.5000000
        k(    3) = (   0.5000000  -0.2886751   0.0000000), wk =   0.5000000
        k(    4) = (  -0.5000000  -0.2886751   0.0000000), wk =   0.5000000

     Dense  grid:  1626001 G-vectors     FFT dimensions: ( 180, 180, 135)

     Smooth grid:   702581 G-vectors     FFT dimensions: ( 125, 125, 108)

     Estimated max dynamical RAM per process >       1.81 GB

     Estimated total dynamical RAM >      10.87 GB

     Check: negative core charge=   -0.000002

     Initial potential from superposition of free atoms

     starting charge  208.80532, renormalised to  209.00000

     negative rho (up, down):  7.162E-05 0.000E+00
     Starting wfcs are  207 randomized atomic wfcs

     total cpu time spent up to now is      138.7 secs

     Self-consistent Calculation

     iteration #  1     ecut=    70.00 Ry     beta= 0.30
     Davidson diagonalization with overlap
     ethr =  1.00E-02,  avg # of iterations =  3.0

     negative rho (up, down):  9.398E-05 0.000E+00

     total cpu time spent up to now is      430.1 secs

     total energy              =    -732.96439801 Ry
     Harris-Foulkes estimate   =    -735.65143813 Ry
     estimated scf accuracy    <       7.26993222 Ry

     iteration #  2     ecut=    70.00 Ry     beta= 0.30
     Davidson diagonalization with overlap
     ethr =  3.48E-03,  avg # of iterations =  2.0

     negative rho (up, down):  1.155E-04 0.000E+00

     total cpu time spent up to now is      629.4 secs

     total energy              =    -732.47435569 Ry
     Harris-Foulkes estimate   =    -733.97887462 Ry
     estimated scf accuracy    <       5.29051703 Ry

     iteration #  3     ecut=    70.00 Ry     beta= 0.30
     Davidson diagonalization with overlap
     ethr =  2.53E-03,  avg # of iterations =  2.5

     negative rho (up, down):  1.706E-04 0.000E+00

     total cpu time spent up to now is      822.5 secs

     total energy              =    -732.64483476 Ry
     Harris-Foulkes estimate   =    -733.57854282 Ry
     estimated scf accuracy    <       3.89857124 Ry

     iteration #  4     ecut=    70.00 Ry     beta= 0.30
     Davidson diagonalization with overlap
     ethr =  1.87E-03,  avg # of iterations =  2.8

     negative rho (up, down):  2.574E-04 0.000E+00

     total cpu time spent up to now is      999.6 secs

     total energy              =    -732.82862597 Ry
     Harris-Foulkes estimate   =    -732.93300873 Ry
     estimated scf accuracy    <       0.30174257 Ry

     iteration #  5     ecut=    70.00 Ry     beta= 0.30
     Davidson diagonalization with overlap
     ethr =  1.44E-04,  avg # of iterations =  9.2

     negative rho (up, down):  2.903E-04 0.000E+00

     total cpu time spent up to now is     1232.6 secs

     total energy              =    -732.85482350 Ry
     Harris-Foulkes estimate   =    -732.86412505 Ry
     estimated scf accuracy    <       0.04830166 Ry

     iteration #  6     ecut=    70.00 Ry     beta= 0.30
     Davidson diagonalization with overlap
     ethr =  2.31E-05,  avg # of iterations =  3.0

     negative rho (up, down):  3.178E-04 0.000E+00

     total cpu time spent up to now is     1415.9 secs

     total energy              =    -732.85822205 Ry
     Harris-Foulkes estimate   =    -732.86510411 Ry
     estimated scf accuracy    <       0.04333324 Ry

     iteration #  7     ecut=    70.00 Ry     beta= 0.30
     Davidson diagonalization with overlap
     ethr =  2.07E-05,  avg # of iterations =  1.8

     negative rho (up, down):  3.832E-04 0.000E+00

     total cpu time spent up to now is     1606.9 secs

     total energy              =    -732.85982868 Ry
     Harris-Foulkes estimate   =    -732.86055334 Ry
     estimated scf accuracy    <       0.00616318 Ry

     iteration #  8     ecut=    70.00 Ry     beta= 0.30
     Davidson diagonalization with overlap
     c_bands:  1 eigenvalues not converged
     ethr =  2.95E-06,  avg # of iterations = 17.5

     negative rho (up, down):  4.571E-04 0.000E+00

     total cpu time spent up to now is     1840.6 secs

     total energy              =    -732.85997615 Ry
     Harris-Foulkes estimate   =    -732.86114832 Ry
     estimated scf accuracy    <       0.01138429 Ry

     iteration #  9     ecut=    70.00 Ry     beta= 0.30
     Davidson diagonalization with overlap
     ethr =  2.95E-06,  avg # of iterations =  3.0

     negative rho (up, down):  4.899E-04 0.000E+00

     total cpu time spent up to now is     2038.2 secs

     total energy              =    -732.86052243 Ry
     Harris-Foulkes estimate   =    -732.86072625 Ry
     estimated scf accuracy    <       0.00227866 Ry

     iteration # 10     ecut=    70.00 Ry     beta= 0.30
     Davidson diagonalization with overlap
     ethr =  1.09E-06,  avg # of iterations =  1.0

     negative rho (up, down):  5.665E-04 0.000E+00

     total cpu time spent up to now is     2230.6 secs

     total energy              =    -732.86055686 Ry
     Harris-Foulkes estimate   =    -732.86074197 Ry
     estimated scf accuracy    <       0.00230279 Ry

     iteration # 11     ecut=    70.00 Ry     beta= 0.30
     Davidson diagonalization with overlap
     ethr =  1.09E-06,  avg # of iterations =  2.2

     negative rho (up, down):  6.305E-04 0.000E+00

     total cpu time spent up to now is     2424.3 secs

     total energy              =    -732.86064603 Ry
     Harris-Foulkes estimate   =    -732.86066166 Ry
     estimated scf accuracy    <       0.00010464 Ry

     iteration # 12     ecut=    70.00 Ry     beta= 0.30
     Davidson diagonalization with overlap
     ethr =  5.01E-08,  avg # of iterations =  2.8

     negative rho (up, down):  6.630E-04 0.000E+00

     total cpu time spent up to now is     2621.2 secs

     total energy              =    -732.86064917 Ry
     Harris-Foulkes estimate   =    -732.86066344 Ry
     estimated scf accuracy    <       0.00011019 Ry

     iteration # 13     ecut=    70.00 Ry     beta= 0.30
     Davidson diagonalization with overlap
     ethr =  5.01E-08,  avg # of iterations =  1.2

     negative rho (up, down):  6.804E-04 0.000E+00

     total cpu time spent up to now is     2813.0 secs

     total energy              =    -732.86065522 Ry
     Harris-Foulkes estimate   =    -732.86066238 Ry
     estimated scf accuracy    <       0.00006822 Ry

     iteration # 14     ecut=    70.00 Ry     beta= 0.30
     Davidson diagonalization with overlap
     ethr =  3.26E-08,  avg # of iterations =  1.0

     negative rho (up, down):  6.854E-04 0.000E+00

     total cpu time spent up to now is     3005.1 secs

     total energy              =    -732.86065968 Ry
     Harris-Foulkes estimate   =    -732.86066039 Ry
     estimated scf accuracy    <       0.00001123 Ry

     iteration # 15     ecut=    70.00 Ry     beta= 0.30
     Davidson diagonalization with overlap
     ethr =  5.38E-09,  avg # of iterations =  1.0

     negative rho (up, down):  6.895E-04 0.000E+00

     total cpu time spent up to now is     3195.3 secs

     End of self-consistent calculation

          k = 0.0000 0.0000 0.0000 ( 87777 PWs)   bands (ev):

   -19.8806 -19.0258 -19.0227 -18.9502 -18.9481 -18.9007 -18.7929 -17.1878
   -17.1877 -17.1593 -17.1281 -17.1230 -16.8528 -16.3471 -16.3463 -16.2146
   -16.2126 -16.2068 -15.7762 -14.4048 -14.4020 -14.1335 -14.0481 -14.0454
   -13.6083 -13.1956 -13.1952 -13.1147 -12.9757 -12.9726 -12.6473 -12.3047
   -12.3028 -11.7429 -11.6295 -11.6291 -11.1810 -10.9104 -10.9094  -9.5171
    -9.3678  -9.3662  -9.2667  -9.2627  -9.2623  -9.2546  -9.0957  -9.0736
    -9.0693  -9.0628  -8.9428  -8.7243  -8.7225  -8.1837  -7.9205  -7.8874
    -7.6779  -7.6720  -7.6309  -7.5571  -7.5543  -6.8602  -6.8593  -6.8470
    -6.8166  -6.8028  -6.7274  -6.7214  -6.6132  -6.6092  -6.5807  -6.5720
    -6.5715  -6.5256  -6.3970  -6.3954  -6.2583  -5.6061  -5.6055  -5.0079
    -4.9460  -4.8751  -4.8730  -4.7743  -4.7518  -4.7453  -4.6402  -4.5623
    -4.5619  -4.3105  -3.8726  -3.8725  -3.8194  -3.7968  -3.7965  -3.6579
    -3.6566  -3.2528  -1.9082  -1.8535  -1.8513  -1.7519  -1.7468  -1.1737
    -0.6855  -0.6838   0.8960   0.9286   0.9353   1.0789   1.0828   1.5111
     2.7699   2.7863   2.7875   2.8249   2.9043   2.9255   3.4273   3.7133
     3.9208   4.0396   4.0405   4.0570   4.1787   4.4241

          k = 0.0000-0.5774 0.0000 ( 87818 PWs)   bands (ev):

   -19.6591 -19.6326 -19.2196 -19.1354 -18.3074 -18.2923 -18.2780 -18.1108
   -17.8127 -17.7390 -16.9598 -16.8945 -16.8704 -16.7523 -15.7049 -15.6006
   -15.5972 -15.4776 -15.3299 -15.1549 -15.1505 -14.9030 -14.6220 -13.9863
   -13.8380 -13.4986 -13.0097 -12.9602 -12.7115 -12.6750 -12.4959 -11.9794
   -11.8863 -11.7465 -11.3626 -11.2018 -11.0559 -10.6520 -10.5077 -10.4628
   -10.2954 -10.2091 -10.0304  -9.7401  -9.0967  -9.0654  -9.0389  -8.9570
    -8.8886  -8.8580  -8.6791  -8.6571  -8.2030  -7.8470  -7.8361  -7.7653
    -7.7295  -7.6340  -7.4837  -7.4579  -7.3665  -7.3578  -7.2775  -7.0612
    -7.0572  -7.0519  -6.9122  -6.8642  -6.6457  -6.5598  -6.1411  -6.0605
    -6.0560  -6.0403  -5.9532  -5.9256  -5.9074  -5.8737  -5.8207  -5.7342
    -5.5372  -5.4323  -5.3380  -4.8347  -4.7152  -4.5582  -4.5427  -4.5036
    -4.4730  -4.3197  -4.2480  -4.0141  -3.8868  -3.0829  -3.0450  -3.0017
    -2.9138  -2.8642  -2.7941  -2.7715  -2.6568  -2.1337  -1.3314  -1.0507
    -0.8192  -0.7293   0.6697   0.8358   1.4033   1.7092   1.7385   1.8292
     1.9970   2.3086   2.3711   2.4311   2.9251   3.0337   3.1780   3.6552
     3.7799   3.9496   3.9883   4.0412   4.2980   4.6310

          k = 0.5000-0.2887 0.0000 ( 87818 PWs)   bands (ev):

   -19.6547 -19.6373 -19.2215 -19.1326 -18.3084 -18.2890 -18.2805 -18.1110
   -17.8123 -17.7408 -16.9586 -16.8963 -16.8677 -16.7515 -15.7063 -15.6016
   -15.5967 -15.4775 -15.3298 -15.1564 -15.1510 -14.9028 -14.6198 -13.9851
   -13.8375 -13.5016 -13.0101 -12.9605 -12.7083 -12.6767 -12.4938 -11.9781
   -11.8861 -11.7487 -11.3630 -11.2039 -11.0561 -10.6511 -10.5091 -10.4622
   -10.2950 -10.2080 -10.0295  -9.7398  -9.0917  -9.0674  -9.0392  -8.9567
    -8.8898  -8.8645  -8.6785  -8.6572  -8.2048  -7.8464  -7.8336  -7.7649
    -7.7304  -7.6325  -7.4754  -7.4589  -7.3726  -7.3537  -7.2706  -7.0607
    -7.0572  -7.0538  -6.9129  -6.8637  -6.6459  -6.5753  -6.1421  -6.0636
    -6.0572  -6.0429  -5.9566  -5.9231  -5.9063  -5.8767  -5.8193  -5.7329
    -5.5300  -5.4064  -5.3477  -4.8357  -4.7185  -4.5569  -4.5432  -4.5035
    -4.4735  -4.3216  -4.2520  -4.0169  -3.8860  -3.0833  -3.0495  -2.9947
    -2.9179  -2.8639  -2.7973  -2.7706  -2.6536  -2.1310  -1.3276  -1.0525
    -0.8189  -0.7302   0.6679   0.8367   1.4183   1.7093   1.7360   1.8130
     1.9883   2.3097   2.3685   2.4286   2.9528   3.0497   3.1893   3.5516
     3.7876   3.9433   3.9984   4.0285   4.4262   4.6444

          k =-0.5000-0.2887 0.0000 ( 87818 PWs)   bands (ev):

   -19.6547 -19.6373 -19.2215 -19.1326 -18.3084 -18.2890 -18.2805 -18.1110
   -17.8123 -17.7408 -16.9586 -16.8963 -16.8677 -16.7515 -15.7064 -15.6016
   -15.5967 -15.4775 -15.3298 -15.1564 -15.1510 -14.9028 -14.6198 -13.9851
   -13.8375 -13.5016 -13.0101 -12.9605 -12.7083 -12.6767 -12.4938 -11.9781
   -11.8861 -11.7487 -11.3630 -11.2039 -11.0561 -10.6511 -10.5091 -10.4622
   -10.2950 -10.2080 -10.0295  -9.7398  -9.0917  -9.0674  -9.0392  -8.9567
    -8.8898  -8.8645  -8.6785  -8.6572  -8.2048  -7.8464  -7.8336  -7.7649
    -7.7304  -7.6325  -7.4754  -7.4589  -7.3726  -7.3537  -7.2706  -7.0607
    -7.0572  -7.0538  -6.9129  -6.8637  -6.6459  -6.5753  -6.1421  -6.0636
    -6.0572  -6.0429  -5.9566  -5.9231  -5.9063  -5.8767  -5.8193  -5.7329
    -5.5300  -5.4064  -5.3477  -4.8357  -4.7185  -4.5570  -4.5432  -4.5035
    -4.4735  -4.3216  -4.2520  -4.0169  -3.8860  -3.0833  -3.0495  -2.9947
    -2.9179  -2.8639  -2.7973  -2.7706  -2.6536  -2.1309  -1.3276  -1.0525
    -0.8189  -0.7302   0.6679   0.8367   1.4183   1.7093   1.7360   1.8130
     1.9883   2.3098   2.3685   2.4286   2.9528   3.0497   3.1893   3.5516
     3.7876   3.9433   3.9984   4.0285   4.4262   4.6443

     the Fermi energy is    -0.8141 ev

!    total energy              =    -732.86065981 Ry
     Harris-Foulkes estimate   =    -732.86066001 Ry
     estimated scf accuracy    <       0.00000034 Ry

     The total energy is the sum of the following terms:

     one-electron contribution =   -2511.63538221 Ry
     hartree contribution      =    1311.76509221 Ry
     xc contribution           =    -273.77908919 Ry
     ewald contribution        =     740.93251358 Ry
     DFT-D3 Dispersion         =      -0.14361079 Ry
     smearing contrib. (-TS)   =      -0.00018341 Ry

     convergence has been achieved in  15 iterations

     negative rho (up, down):  6.895E-04 0.000E+00

     Forces acting on atoms (cartesian axes, Ry/au):

     atom    1 type  1   force =     0.00000254    0.00864884    0.03329408
     atom    2 type  2   force =     0.00000270   -0.00076942    0.03351999
     atom    3 type  3   force =    -0.00009158   -0.00088995   -0.03484588
     atom    4 type  4   force =     0.00535399   -0.00314725   -0.00001547
     atom    5 type  4   force =    -0.00547010    0.00448467   -0.00006983
     atom    6 type  4   force =    -0.00135401   -0.00177331    0.00007388
     atom    7 type  4   force =     0.00447273    0.00252026    0.00018393
     atom    8 type  4   force =    -0.00222269   -0.00050759   -0.00016670
     atom    9 type  4   force =     0.00138885   -0.00699584    0.00017058
     atom   10 type  4   force =     0.00000376    0.00621229    0.00001637
     atom   11 type  4   force =     0.00000354   -0.00020599   -0.00004962
     atom   12 type  4   force =     0.00137106    0.00089536   -0.00016534
     atom   13 type  4   force =    -0.00021202   -0.00010155    0.00000298
     atom   14 type  4   force =     0.00000236   -0.00131826    0.00016862
     atom   15 type  4   force =     0.00000211    0.00077373    0.00015986
     atom   16 type  4   force =     0.01023686   -0.01034804   -0.00043738
     atom   17 type  4   force =    -0.01746376    0.00668923   -0.00138817
     atom   18 type  4   force =    -0.01749777   -0.01068113    0.00131659
     atom   19 type  4   force =     0.00025259   -0.01806234   -0.00227597
     atom   20 type  4   force =    -0.00396965    0.01470377    0.00079676
     atom   21 type  4   force =     0.00112117   -0.00060891   -0.00012005
     atom   22 type  4   force =    -0.00136537    0.00089428   -0.00016574
     atom   23 type  4   force =     0.00021866   -0.00010264    0.00000262
     atom   24 type  4   force =    -0.00534973   -0.00314958   -0.00001580
     atom   25 type  4   force =     0.00547454    0.00448388   -0.00007004
     atom   26 type  4   force =    -0.01023394   -0.01034917   -0.00043699
     atom   27 type  4   force =     0.01746970    0.00668962   -0.00138827
     atom   28 type  4   force =    -0.00002422   -0.86591721    0.00220462
     atom   29 type  4   force =    -0.75331287    0.43345608   -0.01909951
     atom   30 type  4   force =     0.01492386    0.00824658    0.00172868
     atom   31 type  4   force =    -0.01518388   -0.00376893    0.00120962
     atom   32 type  4   force =     0.00651389    0.00208044    0.00006907
     atom   33 type  4   force =    -0.00047149    0.00191561   -0.00013181
     atom   34 type  4   force =     0.00126080    0.00073368    0.00003571
     atom   35 type  4   force =     0.00135974   -0.00177492    0.00007392
     atom   36 type  4   force =    -0.00446702    0.00251917    0.00018398
     atom   37 type  4   force =     0.01750741   -0.01068202    0.00131673
     atom   38 type  4   force =    -0.00024780   -0.01806296   -0.00227551
     atom   39 type  4   force =     0.75330265    0.43348249   -0.01909774
     atom   40 type  4   force =    -0.01491496    0.00824562    0.00172866
     atom   41 type  4   force =     0.00000273    0.01952014    0.00239554
     atom   42 type  4   force =     0.00000139   -0.00402970   -0.00023420
     atom   43 type  4   force =     0.00047457    0.00191675   -0.00013164
     atom   44 type  4   force =    -0.00125653    0.00073387    0.00003569
     atom   45 type  4   force =     0.00000190   -0.00020149    0.00001533
     atom   46 type  4   force =     0.00000281   -0.00130637   -0.00008292
     atom   47 type  4   force =     0.00222836   -0.00050884   -0.00016640
     atom   48 type  4   force =    -0.00138244   -0.00699624    0.00017077
     atom   49 type  4   force =     0.00397396    0.01470219    0.00079703
     atom   50 type  4   force =    -0.00111515   -0.00060593   -0.00011967
     atom   51 type  4   force =     0.01518482   -0.00376513    0.00120981
     atom   52 type  4   force =    -0.00650903    0.00208217    0.00006925

     Total force =     1.505576     Total SCF correction =     0.002633

     BFGS Geometry Optimization

     number of scf cycles    =   1
     number of bfgs steps    =   0

     energy   new            =    -732.8606598054 Ry

     new trust radius        =       0.5000000000 bohr
     new conv_thr            =       0.0000010000 Ry


ATOMIC_POSITIONS (angstrom)
H1       2.465298122   5.694957667   2.210133346
H2       2.465298171   6.444161213   2.210202104
Cu       2.465269478   5.693089491  -0.010605651
C        0.000000000   0.000000000   0.000000000    0   0   0
C        0.000000000   1.423340089   0.000000000    0   0   0
C       -1.232648675   2.135010133   0.000000000    0   0   0
C       -1.232648675   3.558350222   0.000000000    0   0   0
C       -2.465297350   4.270020266   0.000000000    0   0   0
C       -2.465297350   5.693360355   0.000000000    0   0   0
C       -3.697946025   6.405030399   0.000000000    0   0   0
C       -3.697946025   7.828370488   0.000000000    0   0   0
C       -4.930594700   8.540040532   0.000000000    0   0   0
C       -4.930594700   9.963380621   0.000000000    0   0   0
C        2.465297350   0.000000000   0.000000000    0   0   0
C        2.465297350   1.423340089   0.000000000    0   0   0
C        1.232648675   2.135010133   0.000000000    0   0   0
C        1.227333426   3.560386149  -0.000422503
C        0.000000000   4.270020266   0.000000000    0   0   0
C        0.000076879   5.687862921  -0.000692711
C       -1.232648675   6.405030399   0.000000000    0   0   0
C       -1.232648675   7.828370488   0.000000000    0   0   0
C       -2.465297350   8.540040532   0.000000000    0   0   0
C       -2.465297350   9.963380621   0.000000000    0   0   0
C        4.930594700   0.000000000   0.000000000    0   0   0
C        4.930594700   1.423340089   0.000000000    0   0   0
C        3.697946025   2.135010133   0.000000000    0   0   0
C        3.703263081   3.560386265  -0.000422533
C        2.465289978   4.006470730   0.000670995
C        1.003371262   6.536956577  -0.005813105
C        1.237190884   7.830880408   0.000526138
C        0.000000000   8.540040532   0.000000000    0   0   0
C        0.000000000   9.963380621   0.000000000    0   0   0
C        7.395892050   0.000000000   0.000000000    0   0   0
C        7.395892050   1.423340089   0.000000000    0   0   0
C        6.163243375   2.135010133   0.000000000    0   0   0
C        6.163243375   3.558350222   0.000000000    0   0   0
C        4.930594700   4.270020266   0.000000000    0   0   0
C        4.930519279   5.687862735  -0.000692571
C        3.927220327   6.536964618  -0.005812567
C        3.693406524   7.830880115   0.000526134
C        2.465297350   8.540040532   0.000000000    0   0   0
C        2.465297350   9.963380621   0.000000000    0   0   0
C        9.861189400   0.000000000   0.000000000    0   0   0
C        9.861189400   1.423340089   0.000000000    0   0   0
C        8.628540725   2.135010133   0.000000000    0   0   0
C        8.628540725   3.558350222   0.000000000    0   0   0
C        7.395892050   4.270020266   0.000000000    0   0   0
C        7.395892050   5.693360355   0.000000000    0   0   0
C        6.163243375   6.405030399   0.000000000    0   0   0
C        6.163243375   7.828370488   0.000000000    0   0   0
C        4.930594700   8.540040532   0.000000000    0   0   0
C        4.930594700   9.963380621   0.000000000    0   0   0



     Writing output data file gr-12.save/
     NEW-OLD atomic charge density approx. for the potential

     Check: negative core charge=   -0.000002

     negative rho (up, down):  5.341E-04 0.000E+00

     total cpu time spent up to now is     3294.4 secs

     Self-consistent Calculation

     iteration #  1     ecut=    70.00 Ry     beta= 0.30
     Davidson diagonalization with overlap
     ethr =  1.00E-06,  avg # of iterations = 13.0

     negative rho (up, down):  5.652E-04 0.000E+00

     total cpu time spent up to now is     3871.8 secs

     total energy              =    -733.39486822 Ry
     Harris-Foulkes estimate   =    -733.46118750 Ry
     estimated scf accuracy    <       0.17985331 Ry

     iteration #  2     ecut=    70.00 Ry     beta= 0.30
     Davidson diagonalization with overlap
     ethr =  8.61E-05,  avg # of iterations =  2.0

     negative rho (up, down):  5.904E-04 0.000E+00

     total cpu time spent up to now is     4069.4 secs

     total energy              =    -733.39350349 Ry
     Harris-Foulkes estimate   =    -733.41533405 Ry
     estimated scf accuracy    <       0.06379347 Ry

     iteration #  3     ecut=    70.00 Ry     beta= 0.30
     Davidson diagonalization with overlap
     ethr =  3.05E-05,  avg # of iterations =  2.8

     negative rho (up, down):  6.181E-04 0.000E+00

     total cpu time spent up to now is     4270.3 secs

     total energy              =    -733.39271387 Ry
     Harris-Foulkes estimate   =    -733.40844768 Ry
     estimated scf accuracy    <       0.06483119 Ry

     iteration #  4     ecut=    70.00 Ry     beta= 0.30
     Davidson diagonalization with overlap
     ethr =  3.05E-05,  avg # of iterations =  1.8

     negative rho (up, down):  6.391E-04 0.000E+00

     total cpu time spent up to now is     4457.5 secs

     total energy              =    -733.39611007 Ry
     Harris-Foulkes estimate   =    -733.40352402 Ry
     estimated scf accuracy    <       0.04164518 Ry

     iteration #  5     ecut=    70.00 Ry     beta= 0.30
     Davidson diagonalization with overlap
     ethr =  1.99E-05,  avg # of iterations =  1.5

     negative rho (up, down):  6.456E-04 0.000E+00

     total cpu time spent up to now is     4644.2 secs

     total energy              =    -733.39794658 Ry
     Harris-Foulkes estimate   =    -733.39948184 Ry
     estimated scf accuracy    <       0.01164986 Ry

     iteration #  6     ecut=    70.00 Ry     beta= 0.30
     Davidson diagonalization with overlap
     ethr =  5.57E-06,  avg # of iterations =  1.2

     negative rho (up, down):  6.703E-04 0.000E+00

     total cpu time spent up to now is     4831.5 secs

     total energy              =    -733.39868187 Ry
     Harris-Foulkes estimate   =    -733.39949378 Ry
     estimated scf accuracy    <       0.00912022 Ry

     iteration #  7     ecut=    70.00 Ry     beta= 0.30
     Davidson diagonalization with overlap
     ethr =  4.36E-06,  avg # of iterations =  1.0

     negative rho (up, down):  6.815E-04 0.000E+00

     total cpu time spent up to now is     5018.3 secs

     total energy              =    -733.39863041 Ry
     Harris-Foulkes estimate   =    -733.39897712 Ry
     estimated scf accuracy    <       0.00281085 Ry

     iteration #  8     ecut=    70.00 Ry     beta= 0.30
     Davidson diagonalization with overlap
     ethr =  1.34E-06,  avg # of iterations =  1.2

     negative rho (up, down):  6.859E-04 0.000E+00

     total cpu time spent up to now is     5205.9 secs

     total energy              =    -733.39882667 Ry
     Harris-Foulkes estimate   =    -733.39900724 Ry
     estimated scf accuracy    <       0.00278034 Ry

     iteration #  9     ecut=    70.00 Ry     beta= 0.30
     Davidson diagonalization with overlap
     ethr =  1.33E-06,  avg # of iterations =  1.0

     negative rho (up, down):  6.905E-04 0.000E+00

     total cpu time spent up to now is     5392.7 secs

     total energy              =    -733.39889801 Ry
     Harris-Foulkes estimate   =    -733.39890116 Ry
     estimated scf accuracy    <       0.00006325 Ry

     iteration # 10     ecut=    70.00 Ry     beta= 0.30
     Davidson diagonalization with overlap
     ethr =  3.03E-08,  avg # of iterations =  2.5

     negative rho (up, down):  6.931E-04 0.000E+00

     total cpu time spent up to now is     5581.8 secs

     total energy              =    -733.39890269 Ry
     Harris-Foulkes estimate   =    -733.39890239 Ry
     estimated scf accuracy    <       0.00000978 Ry

     iteration # 11     ecut=    70.00 Ry     beta= 0.30
     Davidson diagonalization with overlap
     ethr =  4.68E-09,  avg # of iterations =  1.2

     negative rho (up, down):  6.943E-04 0.000E+00

     total cpu time spent up to now is     5768.9 secs

     total energy              =    -733.39890322 Ry
     Harris-Foulkes estimate   =    -733.39890320 Ry
     estimated scf accuracy    <       0.00000143 Ry

     iteration # 12     ecut=    70.00 Ry     beta= 0.30
     Davidson diagonalization with overlap
     ethr =  6.86E-10,  avg # of iterations =  2.5

     negative rho (up, down):  6.952E-04 0.000E+00

     total cpu time spent up to now is     5958.3 secs

     End of self-consistent calculation

          k = 0.0000 0.0000 0.0000 ( 87777 PWs)   bands (ev):

   -19.9723 -19.2969 -19.2942 -18.9474 -18.9444 -18.8908 -18.8546 -17.4378
   -17.4343 -17.2235 -17.1504 -17.1456 -16.7445 -16.4409 -16.4398 -16.3254
   -16.2086 -16.2084 -15.5025 -14.5079 -14.2204 -14.2175 -14.0900 -14.0864
   -13.6328 -13.1927 -13.1926 -13.1685 -12.9543 -12.9497 -12.3633 -12.0632
   -12.0611 -11.9504 -11.5013 -11.5013 -10.6504  -9.8876  -9.8334  -9.8292
    -9.5015  -9.5007  -9.2883  -9.2862  -9.2825  -9.2600  -8.9562  -8.9548
    -8.3165  -8.2888  -8.2575  -8.2563  -8.1494  -7.6080  -7.5785  -7.5589
    -7.3571  -7.3304  -7.2716  -7.1174  -7.1145  -6.8478  -6.8474  -6.8451
    -6.8064  -6.8053  -6.7892  -6.5627  -6.5556  -6.5548  -6.5285  -6.5195
    -6.0213  -6.0199  -5.8542  -5.8464  -5.3811  -5.3795  -5.3175  -5.2176
    -4.8924  -4.8738  -4.8715  -4.8038  -4.8005  -4.7872  -4.4756  -4.4742
    -4.3648  -3.9420  -3.9414  -3.8307  -3.7580  -3.7576  -3.6794  -3.6793
    -3.3246  -3.0037  -1.9719  -1.8621  -1.8609  -1.8366  -1.8365  -0.7893
    -0.4133  -0.4121   0.8437   0.9126   0.9194   1.1510   1.1543   1.8096
     2.7372   2.7421   2.7577   2.8112   3.1131   3.1377   3.5592   3.7096
     3.8876   4.0360   4.0377   4.0657   4.1779   4.4108

          k = 0.0000-0.5774 0.0000 ( 87818 PWs)   bands (ev):

   -19.7877 -19.7123 -19.3969 -19.1796 -18.5222 -18.4895 -18.3029 -18.0808
   -17.9221 -17.7543 -17.1010 -16.9283 -16.9053 -16.7361 -15.8383 -15.7291
   -15.5667 -15.4773 -15.3481 -15.2133 -15.1536 -14.8612 -14.5137 -14.0466
   -13.8078 -13.3472 -12.9808 -12.8599 -12.7063 -12.5847 -12.3206 -11.9688
   -11.5309 -11.4558 -11.2643 -11.0712 -10.8543 -10.5428 -10.5047 -10.3462
   -10.2841  -9.8448  -9.4127  -9.1949  -8.9951  -8.9554  -8.8918  -8.4588
    -8.4451  -8.0976  -8.0515  -8.0344  -7.7790  -7.7036  -7.6803  -7.4488
    -7.4009  -7.3820  -7.3591  -7.3050  -7.2883  -7.0434  -6.9979  -6.9792
    -6.8045  -6.6896  -6.6554  -6.4889  -6.4567  -6.1952  -6.1212  -6.0881
    -5.9935  -5.9194  -5.8298  -5.8218  -5.7323  -5.7285  -5.5471  -5.4349
    -5.3045  -5.2355  -5.0376  -4.7736  -4.5674  -4.5101  -4.4512  -4.4499
    -4.3383  -4.2683  -4.2138  -3.9043  -3.1436  -3.1118  -3.1093  -2.9946
    -2.9335  -2.9180  -2.8255  -2.8079  -2.7267  -1.9376  -1.3730  -0.7493
    -0.5596  -0.4463   0.6523   0.8865   1.4444   1.6938   1.7615   1.9459
     2.0771   2.2911   2.3800   2.6260   2.9922   3.0518   3.3062   3.6363
     3.7595   3.9679   4.0324   4.2322   4.3287   4.5886

          k = 0.5000-0.2887 0.0000 ( 87818 PWs)   bands (ev):

   -19.7849 -19.7162 -19.3958 -19.1791 -18.5221 -18.4893 -18.3046 -18.0794
   -17.9210 -17.7565 -17.0984 -16.9310 -16.9080 -16.7319 -15.8396 -15.7278
   -15.5668 -15.4757 -15.3490 -15.2142 -15.1548 -14.8625 -14.5092 -14.0466
   -13.8084 -13.3509 -12.9823 -12.8606 -12.7091 -12.5815 -12.3186 -11.9639
   -11.5290 -11.4585 -11.2633 -11.0700 -10.8554 -10.5427 -10.5060 -10.3456
   -10.2849  -9.8483  -9.4144  -9.2009  -8.9968  -8.9517  -8.8909  -8.4574
    -8.4398  -8.0970  -8.0486  -8.0277  -7.7912  -7.7034  -7.6804  -7.4901
    -7.3843  -7.3709  -7.3417  -7.3027  -7.2853  -7.0436  -6.9815  -6.9587
    -6.8056  -6.7148  -6.6869  -6.4914  -6.4486  -6.1978  -6.1218  -6.0895
    -5.9933  -5.9203  -5.8288  -5.8229  -5.7335  -5.7260  -5.5472  -5.4235
    -5.3038  -5.2310  -5.0351  -4.7735  -4.5694  -4.5101  -4.4528  -4.4457
    -4.3305  -4.2673  -4.2273  -3.9048  -3.1475  -3.1245  -3.1004  -2.9887
    -2.9383  -2.9166  -2.8274  -2.8111  -2.7284  -1.9237  -1.3702  -0.7573
    -0.5594  -0.4467   0.6498   0.8912   1.4616   1.6940   1.7591   1.9304
     2.0689   2.2921   2.3772   2.6221   3.0289   3.0442   3.3288   3.5280
     3.7687   3.9564   4.0455   4.2832   4.4132   4.5992

          k =-0.5000-0.2887 0.0000 ( 87818 PWs)   bands (ev):

   -19.7849 -19.7161 -19.3959 -19.1791 -18.5220 -18.4893 -18.3046 -18.0794
   -17.9210 -17.7565 -17.0984 -16.9309 -16.9080 -16.7319 -15.8396 -15.7279
   -15.5668 -15.4757 -15.3490 -15.2142 -15.1548 -14.8625 -14.5093 -14.0466
   -13.8085 -13.3508 -12.9822 -12.8606 -12.7091 -12.5815 -12.3186 -11.9639
   -11.5290 -11.4585 -11.2633 -11.0700 -10.8553 -10.5427 -10.5060 -10.3455
   -10.2849  -9.8482  -9.4144  -9.2008  -8.9968  -8.9518  -8.8910  -8.4574
    -8.4398  -8.0970  -8.0486  -8.0277  -7.7912  -7.7034  -7.6805  -7.4901
    -7.3843  -7.3709  -7.3417  -7.3027  -7.2854  -7.0436  -6.9815  -6.9588
    -6.8056  -6.7147  -6.6869  -6.4914  -6.4487  -6.1979  -6.1217  -6.0895
    -5.9933  -5.9203  -5.8288  -5.8229  -5.7335  -5.7260  -5.5472  -5.4235
    -5.3038  -5.2310  -5.0351  -4.7735  -4.5694  -4.5101  -4.4528  -4.4458
    -4.3305  -4.2673  -4.2273  -3.9048  -3.1475  -3.1245  -3.1004  -2.9887
    -2.9382  -2.9166  -2.8274  -2.8111  -2.7284  -1.9238  -1.3703  -0.7573
    -0.5593  -0.4468   0.6498   0.8912   1.4616   1.6940   1.7591   1.9304
     2.0689   2.2921   2.3772   2.6221   3.0289   3.0441   3.3288   3.5280
     3.7687   3.9564   4.0454   4.2832   4.4132   4.5993

     the Fermi energy is    -0.5545 ev

!    total energy              =    -733.39890295 Ry
     Harris-Foulkes estimate   =    -733.39890335 Ry
     estimated scf accuracy    <       0.00000059 Ry

     The total energy is the sum of the following terms:

     one-electron contribution =   -2497.64824064 Ry
     hartree contribution      =    1305.86669734 Ry
     xc contribution           =    -273.93000445 Ry
     ewald contribution        =     732.45541725 Ry
     DFT-D3 Dispersion         =      -0.14258905 Ry
     smearing contrib. (-TS)   =      -0.00018340 Ry

     convergence has been achieved in  12 iterations

     negative rho (up, down):  6.952E-04 0.000E+00

     Forces acting on atoms (cartesian axes, Ry/au):

     atom    1 type  1   force =    -0.00003732   -0.00121071    0.02129060
     atom    2 type  2   force =    -0.00004655    0.00613185    0.02291159
     atom    3 type  3   force =     0.00133151    0.00016067   -0.02324293
     atom    4 type  4   force =     0.00357781   -0.00218154   -0.00005023
     atom    5 type  4   force =    -0.00204938    0.00017564    0.00008997
     atom    6 type  4   force =    -0.00269851   -0.00348971    0.00004169
     atom    7 type  4   force =     0.01208415    0.00713274   -0.00010322
     atom    8 type  4   force =    -0.00446276   -0.00078418   -0.00019839
     atom    9 type  4   force =    -0.00047566   -0.00198219    0.00013309
     atom   10 type  4   force =    -0.00003293    0.00434439    0.00002155
     atom   11 type  4   force =    -0.00002951    0.00094888    0.00001843
     atom   12 type  4   force =     0.00475616    0.00285305   -0.00008791
     atom   13 type  4   force =     0.00082428   -0.00063509   -0.00000531
     atom   14 type  4   force =    -0.00002926   -0.00538811    0.00011207
     atom   15 type  4   force =    -0.00003024    0.00733400    0.00010716
     atom   16 type  4   force =    -0.02693421   -0.04838699   -0.00037009
     atom   17 type  4   force =    -0.09269148   -0.09888845   -0.00130111
     atom   18 type  4   force =    -0.01709448   -0.01037950    0.00144233
     atom   19 type  4   force =    -0.13257833   -0.03224318   -0.00139061
     atom   20 type  4   force =    -0.05490078    0.00150390    0.00103274
     atom   21 type  4   force =     0.00642880   -0.00384985   -0.00017986
     atom   22 type  4   force =    -0.00481620    0.00285839   -0.00008747
     atom   23 type  4   force =    -0.00088095   -0.00063241   -0.00000546
     atom   24 type  4   force =    -0.00363252   -0.00217148   -0.00005071
     atom   25 type  4   force =     0.00198481    0.00016637    0.00008851
     atom   26 type  4   force =     0.02692194   -0.04837603   -0.00036920
     atom   27 type  4   force =     0.09250915   -0.09898200   -0.00129400
     atom   28 type  4   force =     0.00031558    0.03593295    0.00207931
     atom   29 type  4   force =     0.02891618   -0.01696811   -0.01425416
     atom   30 type  4   force =    -0.03881611    0.12984394    0.00037166
     atom   31 type  4   force =    -0.02900347    0.04663251    0.00156971
     atom   32 type  4   force =     0.00124672    0.00120105    0.00012608
     atom   33 type  4   force =    -0.00126454    0.00387516   -0.00010952
     atom   34 type  4   force =     0.00173134    0.00110930   -0.00004659
     atom   35 type  4   force =     0.00263529   -0.00349298    0.00004194
     atom   36 type  4   force =    -0.01214854    0.00713346   -0.00010319
     atom   37 type  4   force =     0.01705257   -0.01039916    0.00144082
     atom   38 type  4   force =     0.13246823   -0.03236776   -0.00138322
     atom   39 type  4   force =    -0.02876451   -0.01725721   -0.01426881
     atom   40 type  4   force =     0.03848203    0.12993262    0.00037496
     atom   41 type  4   force =    -0.00003289    0.01789012    0.00266552
     atom   42 type  4   force =    -0.00002865   -0.01276043    0.00049113
     atom   43 type  4   force =     0.00120583    0.00387984   -0.00010988
     atom   44 type  4   force =    -0.00179336    0.00110849   -0.00004635
     atom   45 type  4   force =    -0.00003135   -0.00023759    0.00003148
     atom   46 type  4   force =    -0.00003399   -0.00178018    0.00009241
     atom   47 type  4   force =     0.00440100   -0.00078477   -0.00019852
     atom   48 type  4   force =     0.00041613   -0.00200350    0.00013204
     atom   49 type  4   force =     0.05483942    0.00154521    0.00103386
     atom   50 type  4   force =    -0.00647515   -0.00384407   -0.00017960
     atom   51 type  4   force =     0.02901770    0.04657157    0.00157046
     atom   52 type  4   force =    -0.00133300    0.00121107    0.00012522

     Total force =     0.340861     Total SCF correction =     0.002841

     number of scf cycles    =   2
     number of bfgs steps    =   1

     energy   old            =    -732.8606598054 Ry
     energy   new            =    -733.3989029508 Ry

     CASE: energy  _new < energy  _old

     new trust radius        =       0.1319072121 bohr
     new conv_thr            =       0.0000010000 Ry


ATOMIC_POSITIONS (angstrom)
H1       2.465279150   5.694620579   2.222085884
H2       2.465274490   6.447266999   2.222989622
Cu       2.465946341   5.693142603  -0.023605434
C        0.000000000   0.000000000   0.000000000    0   0   0
C        0.000000000   1.423340089   0.000000000    0   0   0
C       -1.232648675   2.135010133   0.000000000    0   0   0
C       -1.232648675   3.558350222   0.000000000    0   0   0
C       -2.465297350   4.270020266   0.000000000    0   0   0
C       -2.465297350   5.693360355   0.000000000    0   0   0
C       -3.697946025   6.405030399   0.000000000    0   0   0
C       -3.697946025   7.828370488   0.000000000    0   0   0
C       -4.930594700   8.540040532   0.000000000    0   0   0
C       -4.930594700   9.963380621   0.000000000    0   0   0
C        2.465297350   0.000000000   0.000000000    0   0   0
C        2.465297350   1.423340089   0.000000000    0   0   0
C        1.232648675   2.135010133   0.000000000    0   0   0
C        1.179439577   3.510113192  -0.001131935
C        0.000000000   4.270020266   0.000000000    0   0   0
C       -0.067606601   5.670813237  -0.001476691
C       -1.232648675   6.405030399   0.000000000    0   0   0
C       -1.232648675   7.828370488   0.000000000    0   0   0
C       -2.465297350   8.540040532   0.000000000    0   0   0
C       -2.465297350   9.963380621   0.000000000    0   0   0
C        4.930594700   0.000000000   0.000000000    0   0   0
C        4.930594700   1.423340089   0.000000000    0   0   0
C        3.697946025   2.135010133   0.000000000    0   0   0
C        3.751064031   3.510065554  -0.001128339
C        2.465450320   3.996676347   0.001804295
C        0.993653731   6.542379680  -0.013711683
C        1.217857206   7.897443976   0.000772078
C        0.000000000   8.540040532   0.000000000    0   0   0
C        0.000000000   9.963380621   0.000000000    0   0   0
C        7.395892050   0.000000000   0.000000000    0   0   0
C        7.395892050   1.423340089   0.000000000    0   0   0
C        6.163243375   2.135010133   0.000000000    0   0   0
C        6.163243375   3.558350222   0.000000000    0   0   0
C        4.930594700   4.270020266   0.000000000    0   0   0
C        4.998146695   5.670749422  -0.001472763
C        3.937014961   6.542240972  -0.013718566
C        3.712569919   7.897488929   0.000773758
C        2.465297350   8.540040532   0.000000000    0   0   0
C        2.465297350   9.963380621   0.000000000    0   0   0
C        9.861189400   0.000000000   0.000000000    0   0   0
C        9.861189400   1.423340089   0.000000000    0   0   0
C        8.628540725   2.135010133   0.000000000    0   0   0
C        8.628540725   3.558350222   0.000000000    0   0   0
C        7.395892050   4.270020266   0.000000000    0   0   0
C        7.395892050   5.693360355   0.000000000    0   0   0
C        6.163243375   6.405030399   0.000000000    0   0   0
C        6.163243375   7.828370488   0.000000000    0   0   0
C        4.930594700   8.540040532   0.000000000    0   0   0
C        4.930594700   9.963380621   0.000000000    0   0   0



     Writing output data file gr-12.save/
     NEW-OLD atomic charge density approx. for the potential

     Check: negative core charge=   -0.000002

     negative rho (up, down):  5.144E-04 0.000E+00

     total cpu time spent up to now is     6057.9 secs

     Self-consistent Calculation

     iteration #  1     ecut=    70.00 Ry     beta= 0.30
     Davidson diagonalization with overlap
     ethr =  1.00E-06,  avg # of iterations =  8.8

     negative rho (up, down):  5.432E-04 0.000E+00

     total cpu time spent up to now is     6575.9 secs

     total energy              =    -733.42324021 Ry
     Harris-Foulkes estimate   =    -733.44367687 Ry
     estimated scf accuracy    <       0.05089396 Ry

     iteration #  2     ecut=    70.00 Ry     beta= 0.30
     Davidson diagonalization with overlap
     ethr =  2.44E-05,  avg # of iterations =  2.2

     negative rho (up, down):  5.544E-04 0.000E+00

     total cpu time spent up to now is     6784.6 secs

     total energy              =    -733.41875312 Ry
     Harris-Foulkes estimate   =    -733.43408376 Ry
     estimated scf accuracy    <       0.07041580 Ry

     iteration #  3     ecut=    70.00 Ry     beta= 0.30
     Davidson diagonalization with overlap
     ethr =  2.44E-05,  avg # of iterations =  2.0

     negative rho (up, down):  5.786E-04 0.000E+00

     total cpu time spent up to now is     6966.3 secs

     total energy              =    -733.42764659 Ry
     Harris-Foulkes estimate   =    -733.43328301 Ry
     estimated scf accuracy    <       0.03306141 Ry

     iteration #  4     ecut=    70.00 Ry     beta= 0.30
     Davidson diagonalization with overlap
     ethr =  1.58E-05,  avg # of iterations =  1.8

     negative rho (up, down):  5.962E-04 0.000E+00

     total cpu time spent up to now is     7140.6 secs

     total energy              =    -733.42863802 Ry
     Harris-Foulkes estimate   =    -733.43269762 Ry
     estimated scf accuracy    <       0.02951280 Ry

     iteration #  5     ecut=    70.00 Ry     beta= 0.30
     Davidson diagonalization with overlap
     ethr =  1.41E-05,  avg # of iterations =  1.0

     negative rho (up, down):  6.104E-04 0.000E+00

     total cpu time spent up to now is     7321.3 secs

     total energy              =    -733.42919493 Ry
     Harris-Foulkes estimate   =    -733.43004134 Ry
     estimated scf accuracy    <       0.00471396 Ry

     iteration #  6     ecut=    70.00 Ry     beta= 0.30
     Davidson diagonalization with overlap
     ethr =  2.26E-06,  avg # of iterations =  2.0

     negative rho (up, down):  6.345E-04 0.000E+00

     total cpu time spent up to now is     7508.7 secs

     total energy              =    -733.42922369 Ry
     Harris-Foulkes estimate   =    -733.43035965 Ry
     estimated scf accuracy    <       0.01231116 Ry

     iteration #  7     ecut=    70.00 Ry     beta= 0.30
     Davidson diagonalization with overlap
     ethr =  2.26E-06,  avg # of iterations =  1.2

     negative rho (up, down):  6.576E-04 0.000E+00

     total cpu time spent up to now is     7695.0 secs

     total energy              =    -733.42944491 Ry
     Harris-Foulkes estimate   =    -733.42966266 Ry
     estimated scf accuracy    <       0.00177375 Ry

     iteration #  8     ecut=    70.00 Ry     beta= 0.30
     Davidson diagonalization with overlap
     ethr =  8.49E-07,  avg # of iterations =  1.5

     negative rho (up, down):  6.714E-04 0.000E+00

     total cpu time spent up to now is     7879.9 secs

     total energy              =    -733.42950711 Ry
     Harris-Foulkes estimate   =    -733.42963888 Ry
     estimated scf accuracy    <       0.00140902 Ry

     iteration #  9     ecut=    70.00 Ry     beta= 0.30
     Davidson diagonalization with overlap
     ethr =  6.74E-07,  avg # of iterations =  1.0

     negative rho (up, down):  6.809E-04 0.000E+00

     total cpu time spent up to now is     8072.4 secs

     total energy              =    -733.42956309 Ry
     Harris-Foulkes estimate   =    -733.42961301 Ry
     estimated scf accuracy    <       0.00059389 Ry

     iteration # 10     ecut=    70.00 Ry     beta= 0.30
     Davidson diagonalization with overlap
     ethr =  2.84E-07,  avg # of iterations =  1.0

     negative rho (up, down):  6.857E-04 0.000E+00

     total cpu time spent up to now is     8255.8 secs

     total energy              =    -733.42958960 Ry
     Harris-Foulkes estimate   =    -733.42960013 Ry
     estimated scf accuracy    <       0.00013980 Ry

     iteration # 11     ecut=    70.00 Ry     beta= 0.30
     Davidson diagonalization with overlap
     ethr =  6.69E-08,  avg # of iterations =  1.0

     negative rho (up, down):  6.876E-04 0.000E+00

     total cpu time spent up to now is     8432.8 secs

     total energy              =    -733.42959574 Ry
     Harris-Foulkes estimate   =    -733.42959711 Ry
     estimated scf accuracy    <       0.00002098 Ry

     iteration # 12     ecut=    70.00 Ry     beta= 0.30
     Davidson diagonalization with overlap
     ethr =  1.00E-08,  avg # of iterations =  1.0

     negative rho (up, down):  6.889E-04 0.000E+00

     total cpu time spent up to now is     8607.2 secs

     total energy              =    -733.42959664 Ry
     Harris-Foulkes estimate   =    -733.42959668 Ry
     estimated scf accuracy    <       0.00000132 Ry

     iteration # 13     ecut=    70.00 Ry     beta= 0.30
     Davidson diagonalization with overlap
     ethr =  6.33E-10,  avg # of iterations =  3.0

     negative rho (up, down):  6.900E-04 0.000E+00

     total cpu time spent up to now is     8782.7 secs

     End of self-consistent calculation

          k = 0.0000 0.0000 0.0000 ( 87777 PWs)   bands (ev):

   -19.9939 -19.3306 -19.3297 -19.0171 -19.0149 -18.8836 -18.7605 -17.4176
   -17.3893 -17.3872 -17.1135 -17.1100 -16.7011 -16.4889 -16.4880 -16.3963
   -16.1488 -16.1480 -15.3556 -14.5193 -14.1860 -14.1827 -14.0909 -14.0874
   -13.5863 -13.2786 -13.2779 -13.1755 -12.8705 -12.8657 -12.4893 -11.9844
   -11.9826 -11.9097 -11.5592 -11.5577 -10.5690  -9.7939  -9.7896  -9.6584
    -9.5148  -9.5120  -9.3967  -9.3946  -9.3562  -9.2621  -8.9467  -8.9439
    -8.4662  -8.2566  -8.2564  -8.2220  -8.1127  -7.5282  -7.5070  -7.4766
    -7.3116  -7.2776  -7.2062  -7.1067  -7.1023  -6.8968  -6.8968  -6.8405
    -6.8391  -6.7964  -6.7486  -6.6987  -6.5921  -6.5919  -6.5036  -6.4286
    -5.9561  -5.9523  -5.7971  -5.7895  -5.3947  -5.3601  -5.3589  -5.3115
    -4.9328  -4.8798  -4.8755  -4.8634  -4.8400  -4.8368  -4.4979  -4.4963
    -4.3280  -4.0028  -4.0017  -3.8588  -3.7379  -3.7359  -3.6097  -3.6094
    -3.3691  -2.9170  -2.0519  -1.8836  -1.8806  -1.7486  -1.7430  -0.8102
    -0.5451  -0.5439   0.8824   0.8865   0.9240   1.1424   1.1479   1.7042
     2.7238   2.7941   2.8527   2.8653   2.9911   3.0187   3.5625   3.7088
     3.8881   4.0274   4.0285   4.0587   4.1929   4.4080

          k = 0.0000-0.5774 0.0000 ( 87818 PWs)   bands (ev):

   -19.7989 -19.7494 -19.4403 -19.1912 -18.5384 -18.4750 -18.3736 -18.0464
   -17.9254 -17.7835 -17.0689 -16.9810 -16.9104 -16.6466 -15.8705 -15.7263
   -15.4819 -15.4745 -15.3503 -15.1976 -15.1872 -14.9013 -14.4212 -13.9900
   -13.7881 -13.3206 -12.9969 -12.9463 -12.6518 -12.5834 -12.2616 -11.9273
   -11.5509 -11.5010 -11.2517 -11.1153 -10.7776 -10.5834 -10.5132 -10.3586
   -10.2425  -9.8231  -9.3660  -9.2188  -9.0173  -8.9785  -8.9021  -8.4196
    -8.2980  -8.1006  -7.9824  -7.9480  -7.7898  -7.7535  -7.6768  -7.5798
    -7.4291  -7.4232  -7.3457  -7.2983  -7.2772  -7.0073  -6.9698  -6.9432
    -6.8315  -6.5809  -6.5425  -6.5363  -6.3986  -6.1714  -6.1545  -6.1011
    -6.0240  -5.9893  -5.8128  -5.7971  -5.7318  -5.5745  -5.5677  -5.4880
    -5.4536  -5.2503  -5.0943  -4.7640  -4.5745  -4.5685  -4.4600  -4.4280
    -4.3082  -4.3062  -4.1509  -3.8784  -3.2143  -3.1789  -3.0982  -3.0188
    -2.9055  -2.8977  -2.8320  -2.8141  -2.6408  -1.8773  -1.3524  -0.7703
    -0.6821  -0.5815   0.6914   0.8350   1.4657   1.7054   1.7094   1.9529
     2.1053   2.3221   2.3573   2.5101   2.9839   3.0426   3.2504   3.6327
     3.7625   4.0133   4.0528   4.1525   4.2628   4.6097

          k = 0.5000-0.2887 0.0000 ( 87818 PWs)   bands (ev):

   -19.7950 -19.7541 -19.4401 -19.1901 -18.5390 -18.4745 -18.3744 -18.0459
   -17.9234 -17.7867 -17.0665 -16.9836 -16.9104 -16.6442 -15.8714 -15.7263
   -15.4804 -15.4752 -15.3504 -15.1979 -15.1887 -14.9028 -14.4177 -13.9892
   -13.7875 -13.3242 -12.9974 -12.9470 -12.6551 -12.5813 -12.2607 -11.9223
   -11.5525 -11.5001 -11.2506 -11.1147 -10.7773 -10.5835 -10.5151 -10.3597
   -10.2415  -9.8250  -9.3683  -9.2203  -9.0148  -8.9801  -8.9044  -8.4168
    -8.2980  -8.0995  -7.9791  -7.9375  -7.8038  -7.7531  -7.6771  -7.5816
    -7.4648  -7.4142  -7.3221  -7.2914  -7.2699  -7.0078  -6.9519  -6.9393
    -6.8309  -6.5810  -6.5782  -6.5403  -6.3922  -6.1723  -6.1583  -6.1015
    -6.0235  -5.9899  -5.8173  -5.7969  -5.7383  -5.5765  -5.5629  -5.4873
    -5.4413  -5.2444  -5.0901  -4.7628  -4.5762  -4.5690  -4.4556  -4.4307
    -4.3094  -4.2963  -4.1620  -3.8804  -3.2188  -3.1819  -3.1000  -3.0120
    -2.9085  -2.8949  -2.8331  -2.8182  -2.6435  -1.8671  -1.3483  -0.7757
    -0.6834  -0.5812   0.6888   0.8388   1.4840   1.7038   1.7069   1.9357
     2.0958   2.3208   2.3587   2.5104   3.0158   3.0385   3.2702   3.5292
     3.7725   4.0225   4.0381   4.1415   4.4186   4.6145

          k =-0.5000-0.2887 0.0000 ( 87818 PWs)   bands (ev):

   -19.7950 -19.7540 -19.4403 -19.1899 -18.5390 -18.4742 -18.3746 -18.0458
   -17.9236 -17.7869 -17.0662 -16.9836 -16.9104 -16.6439 -15.8720 -15.7260
   -15.4804 -15.4754 -15.3501 -15.1978 -15.1888 -14.9031 -14.4179 -13.9888
   -13.7871 -13.3245 -12.9973 -12.9469 -12.6552 -12.5814 -12.2611 -11.9221
   -11.5524 -11.4998 -11.2505 -11.1147 -10.7773 -10.5835 -10.5152 -10.3599
   -10.2416  -9.8253  -9.3680  -9.2205  -9.0148  -8.9797  -8.9043  -8.4165
    -8.2977  -8.0997  -7.9792  -7.9375  -7.8037  -7.7534  -7.6769  -7.5817
    -7.4647  -7.4142  -7.3221  -7.2914  -7.2700  -7.0079  -6.9518  -6.9397
    -6.8306  -6.5815  -6.5786  -6.5407  -6.3916  -6.1723  -6.1574  -6.1016
    -6.0234  -5.9901  -5.8168  -5.7969  -5.7385  -5.5758  -5.5630  -5.4879
    -5.4415  -5.2444  -5.0908  -4.7625  -4.5762  -4.5689  -4.4556  -4.4308
    -4.3093  -4.2963  -4.1615  -3.8803  -3.2191  -3.1820  -3.1001  -3.0120
    -2.9086  -2.8950  -2.8332  -2.8181  -2.6431  -1.8672  -1.3480  -0.7757
    -0.6834  -0.5812   0.6882   0.8389   1.4842   1.7038   1.7069   1.9353
     2.0960   2.3212   2.3587   2.5106   3.0157   3.0385   3.2701   3.5292
     3.7725   4.0226   4.0380   4.1410   4.4186   4.6145

     the Fermi energy is    -0.6780 ev

!    total energy              =    -733.42959666 Ry
     Harris-Foulkes estimate   =    -733.42959670 Ry
     estimated scf accuracy    <       0.00000008 Ry

     The total energy is the sum of the following terms:

     one-electron contribution =   -2493.11735568 Ry
     hartree contribution      =    1303.59579043 Ry
     xc contribution           =    -273.88172266 Ry
     ewald contribution        =     730.11683885 Ry
     DFT-D3 Dispersion         =      -0.14296524 Ry
     smearing contrib. (-TS)   =      -0.00018235 Ry

     convergence has been achieved in  13 iterations

     negative rho (up, down):  6.900E-04 0.000E+00

     Forces acting on atoms (cartesian axes, Ry/au):

     atom    1 type  1   force =    -0.00001668    0.00380161    0.02024742
     atom    2 type  2   force =    -0.00001728    0.00154406    0.02230945
     atom    3 type  3   force =    -0.00068317    0.00259157   -0.02700179
     atom    4 type  4   force =     0.00108746   -0.00068210   -0.00005105
     atom    5 type  4   force =    -0.00713443   -0.01213353    0.00018792
     atom    6 type  4   force =    -0.00200720   -0.00461208    0.00013594
     atom    7 type  4   force =     0.00468021    0.00282221    0.00007338
     atom    8 type  4   force =    -0.00506520    0.00036706   -0.00032755
     atom    9 type  4   force =    -0.01377983   -0.00005884    0.00023697
     atom   10 type  4   force =     0.00000165    0.00140821    0.00011078
     atom   11 type  4   force =    -0.00000971    0.00067662   -0.00001267
     atom   12 type  4   force =     0.00206714    0.00129326   -0.00008682
     atom   13 type  4   force =     0.00055142   -0.00044728    0.00001568
     atom   14 type  4   force =    -0.00001153   -0.00222130    0.00023538
     atom   15 type  4   force =     0.00000230    0.00379979    0.00009922
     atom   16 type  4   force =    -0.04182601   -0.10643472   -0.00116484
     atom   17 type  4   force =     0.05441197    0.02962884   -0.00211146
     atom   18 type  4   force =    -0.06557597   -0.03922927    0.00158911
     atom   19 type  4   force =     0.05132202    0.03388652   -0.00295289
     atom   20 type  4   force =    -0.11258358    0.01685680    0.00135814
     atom   21 type  4   force =     0.00342707   -0.00202361   -0.00020476
     atom   22 type  4   force =    -0.00208541    0.00129079   -0.00008662
     atom   23 type  4   force =    -0.00056904   -0.00044695    0.00001572
     atom   24 type  4   force =    -0.00110064   -0.00068946   -0.00005219
     atom   25 type  4   force =     0.00710564   -0.01211702    0.00018736
     atom   26 type  4   force =     0.04178831   -0.10659395   -0.00116446
     atom   27 type  4   force =    -0.05384229    0.02960284   -0.00209967
     atom   28 type  4   force =    -0.00058119   -0.01164044    0.00972749
     atom   29 type  4   force =    -0.01135704    0.00276073   -0.01476860
     atom   30 type  4   force =    -0.00205356   -0.06121936    0.00154581
     atom   31 type  4   force =    -0.07152684    0.08846571    0.00208063
     atom   32 type  4   force =    -0.00683649    0.01172217    0.00009682
     atom   33 type  4   force =    -0.00253107    0.00388424   -0.00012627
     atom   34 type  4   force =     0.00141290    0.00089515   -0.00006403
     atom   35 type  4   force =     0.00199653   -0.00462060    0.00013650
     atom   36 type  4   force =    -0.00472182    0.00283598    0.00007171
     atom   37 type  4   force =     0.06555281   -0.03941054    0.00159065
     atom   38 type  4   force =    -0.05095801    0.03385392   -0.00294026
     atom   39 type  4   force =     0.01214605    0.00391034   -0.01479029
     atom   40 type  4   force =     0.00246897   -0.06141730    0.00155344
     atom   41 type  4   force =    -0.00016771    0.07392686    0.00267677
     atom   42 type  4   force =    -0.00000858   -0.00423609    0.00055833
     atom   43 type  4   force =     0.00250710    0.00388333   -0.00012649
     atom   44 type  4   force =    -0.00143577    0.00089721   -0.00006387
     atom   45 type  4   force =    -0.00000297   -0.00021942    0.00004267
     atom   46 type  4   force =    -0.00001012   -0.00133156    0.00007173
     atom   47 type  4   force =     0.00505389    0.00036180   -0.00032817
     atom   48 type  4   force =     0.01372749   -0.00005604    0.00023596
     atom   49 type  4   force =     0.11253176    0.01682289    0.00136119
     atom   50 type  4   force =    -0.00347124   -0.00205120   -0.00020436
     atom   51 type  4   force =     0.07131468    0.08838999    0.00208060
     atom   52 type  4   force =     0.00681303    0.01171211    0.00009635

     Total force =     0.159147     Total SCF correction =     0.000891

     number of scf cycles    =   3
     number of bfgs steps    =   2

     energy   old            =    -733.3989029508 Ry
     energy   new            =    -733.4295966597 Ry

     CASE: energy  _new < energy  _old

     new trust radius        =       0.0393348802 bohr
     new conv_thr            =       0.0000006142 Ry


ATOMIC_POSITIONS (angstrom)
H1       2.465272054   5.695959594   2.229902347
H2       2.465266970   6.447984352   2.231616231
Cu       2.465717247   5.694130938  -0.033998643
C        0.000000000   0.000000000   0.000000000    0   0   0
C        0.000000000   1.423340089   0.000000000    0   0   0
C       -1.232648675   2.135010133   0.000000000    0   0   0
C       -1.232648675   3.558350222   0.000000000    0   0   0
C       -2.465297350   4.270020266   0.000000000    0   0   0
C       -2.465297350   5.693360355   0.000000000    0   0   0
C       -3.697946025   6.405030399   0.000000000    0   0   0
C       -3.697946025   7.828370488   0.000000000    0   0   0
C       -4.930594700   8.540040532   0.000000000    0   0   0
C       -4.930594700   9.963380621   0.000000000    0   0   0
C        2.465297350   0.000000000   0.000000000    0   0   0
C        2.465297350   1.423340089   0.000000000    0   0   0
C        1.232648675   2.135010133   0.000000000    0   0   0
C        1.198166220   3.519164252  -0.001944628
C        0.000000000   4.270020266   0.000000000    0   0   0
C       -0.051025325   5.683068179  -0.002601549
C       -1.232648675   6.405030399   0.000000000    0   0   0
C       -1.232648675   7.828370488   0.000000000    0   0   0
C       -2.465297350   8.540040532   0.000000000    0   0   0
C       -2.465297350   9.963380621   0.000000000    0   0   0
C        4.930594700   0.000000000   0.000000000    0   0   0
C        4.930594700   1.423340089   0.000000000    0   0   0
C        3.697946025   2.135010133   0.000000000    0   0   0
C        3.732548451   3.519104840  -0.001936435
C        2.465237854   4.000037043   0.005500156
C        0.996064060   6.539561931  -0.019428233
C        1.216147880   7.877002501   0.001349117
C        0.000000000   8.540040532   0.000000000    0   0   0
C        0.000000000   9.963380621   0.000000000    0   0   0
C        7.395892050   0.000000000   0.000000000    0   0   0
C        7.395892050   1.423340089   0.000000000    0   0   0
C        6.163243375   2.135010133   0.000000000    0   0   0
C        6.163243375   3.558350222   0.000000000    0   0   0
C        4.930594700   4.270020266   0.000000000    0   0   0
C        4.981700409   5.682989459  -0.002592706
C        3.934905581   6.539850683  -0.019443618
C        3.714428895   7.876974642   0.001353743
C        2.465297350   8.540040532   0.000000000    0   0   0
C        2.465297350   9.963380621   0.000000000    0   0   0
C        9.861189400   0.000000000   0.000000000    0   0   0
C        9.861189400   1.423340089   0.000000000    0   0   0
C        8.628540725   2.135010133   0.000000000    0   0   0
C        8.628540725   3.558350222   0.000000000    0   0   0
C        7.395892050   4.270020266   0.000000000    0   0   0
C        7.395892050   5.693360355   0.000000000    0   0   0
C        6.163243375   6.405030399   0.000000000    0   0   0
C        6.163243375   7.828370488   0.000000000    0   0   0
C        4.930594700   8.540040532   0.000000000    0   0   0
C        4.930594700   9.963380621   0.000000000    0   0   0



     Writing output data file gr-12.save/
     NEW-OLD atomic charge density approx. for the potential

     Check: negative core charge=   -0.000002

     negative rho (up, down):  5.633E-04 0.000E+00

     total cpu time spent up to now is     8877.5 secs

     Self-consistent Calculation

     iteration #  1     ecut=    70.00 Ry     beta= 0.30
     Davidson diagonalization with overlap
     ethr =  1.00E-06,  avg # of iterations =  4.2

     negative rho (up, down):  5.892E-04 0.000E+00

     total cpu time spent up to now is     9281.9 secs

     total energy              =    -733.43575415 Ry
     Harris-Foulkes estimate   =    -733.44044180 Ry
     estimated scf accuracy    <       0.01127158 Ry

     iteration #  2     ecut=    70.00 Ry     beta= 0.30
     Davidson diagonalization with overlap
     ethr =  5.39E-06,  avg # of iterations =  3.2

     negative rho (up, down):  5.947E-04 0.000E+00

     total cpu time spent up to now is     9481.5 secs

     total energy              =    -733.43641428 Ry
     Harris-Foulkes estimate   =    -733.44284935 Ry
     estimated scf accuracy    <       0.04043489 Ry

     iteration #  3     ecut=    70.00 Ry     beta= 0.30
     Davidson diagonalization with overlap
     ethr =  5.39E-06,  avg # of iterations =  2.2

     negative rho (up, down):  6.047E-04 0.000E+00

     total cpu time spent up to now is     9671.2 secs

     total energy              =    -733.43827809 Ry
     Harris-Foulkes estimate   =    -733.43924632 Ry
     estimated scf accuracy    <       0.00556920 Ry

     iteration #  4     ecut=    70.00 Ry     beta= 0.30
     Davidson diagonalization with overlap
     ethr =  2.66E-06,  avg # of iterations =  2.0

     negative rho (up, down):  6.148E-04 0.000E+00

     total cpu time spent up to now is     9855.7 secs

     total energy              =    -733.43842301 Ry
     Harris-Foulkes estimate   =    -733.43920320 Ry
     estimated scf accuracy    <       0.00953804 Ry

     iteration #  5     ecut=    70.00 Ry     beta= 0.30
     Davidson diagonalization with overlap
     ethr =  2.66E-06,  avg # of iterations =  1.0

     negative rho (up, down):  6.278E-04 0.000E+00

     total cpu time spent up to now is    10036.7 secs

     total energy              =    -733.43859645 Ry
     Harris-Foulkes estimate   =    -733.43901485 Ry
     estimated scf accuracy    <       0.00493944 Ry

     iteration #  6     ecut=    70.00 Ry     beta= 0.30
     Davidson diagonalization with overlap
     ethr =  2.36E-06,  avg # of iterations =  1.0

     negative rho (up, down):  6.558E-04 0.000E+00

     total cpu time spent up to now is    10219.3 secs

     total energy              =    -733.43875380 Ry
     Harris-Foulkes estimate   =    -733.43888264 Ry
     estimated scf accuracy    <       0.00136654 Ry

     iteration #  7     ecut=    70.00 Ry     beta= 0.30
     Davidson diagonalization with overlap
     ethr =  6.54E-07,  avg # of iterations =  1.0

     negative rho (up, down):  6.734E-04 0.000E+00

     total cpu time spent up to now is    10402.3 secs

     total energy              =    -733.43881620 Ry
     Harris-Foulkes estimate   =    -733.43882956 Ry
     estimated scf accuracy    <       0.00019613 Ry

     iteration #  8     ecut=    70.00 Ry     beta= 0.30
     Davidson diagonalization with overlap
     ethr =  9.38E-08,  avg # of iterations =  1.0

     negative rho (up, down):  6.818E-04 0.000E+00

     total cpu time spent up to now is    10581.6 secs

     total energy              =    -733.43882349 Ry
     Harris-Foulkes estimate   =    -733.43882383 Ry
     estimated scf accuracy    <       0.00000428 Ry

     iteration #  9     ecut=    70.00 Ry     beta= 0.30
     Davidson diagonalization with overlap
     ethr =  2.05E-09,  avg # of iterations =  3.2

     negative rho (up, down):  6.859E-04 0.000E+00

     total cpu time spent up to now is    10789.0 secs

     total energy              =    -733.43882406 Ry
     Harris-Foulkes estimate   =    -733.43882439 Ry
     estimated scf accuracy    <       0.00000331 Ry

     iteration # 10     ecut=    70.00 Ry     beta= 0.30
     Davidson diagonalization with overlap
     ethr =  1.59E-09,  avg # of iterations =  2.0

     negative rho (up, down):  6.885E-04 0.000E+00

     total cpu time spent up to now is    10977.8 secs

     total energy              =    -733.43882420 Ry
     Harris-Foulkes estimate   =    -733.43882440 Ry
     estimated scf accuracy    <       0.00000254 Ry

     iteration # 11     ecut=    70.00 Ry     beta= 0.30
     Davidson diagonalization with overlap
     ethr =  1.22E-09,  avg # of iterations =  1.0

     negative rho (up, down):  6.893E-04 0.000E+00

     total cpu time spent up to now is    11163.8 secs

     total energy              =    -733.43882433 Ry
     Harris-Foulkes estimate   =    -733.43882438 Ry
     estimated scf accuracy    <       0.00000082 Ry

     iteration # 12     ecut=    70.00 Ry     beta= 0.30
     Davidson diagonalization with overlap
     ethr =  3.94E-10,  avg # of iterations =  1.0

     negative rho (up, down):  6.902E-04 0.000E+00

     total cpu time spent up to now is    11330.4 secs

     End of self-consistent calculation

          k = 0.0000 0.0000 0.0000 ( 87777 PWs)   bands (ev):

   -19.9871 -19.3278 -19.3252 -18.9909 -18.9900 -18.8826 -18.7854 -17.4000
   -17.3996 -17.3678 -17.1137 -17.1097 -16.7133 -16.4762 -16.4750 -16.3641
   -16.1640 -16.1623 -15.3986 -14.5208 -14.1561 -14.1528 -14.1248 -14.1236
   -13.5852 -13.2498 -13.2485 -13.1661 -12.8936 -12.8895 -12.4606 -12.0074
   -12.0062 -11.9065 -11.5428 -11.5412 -10.5955  -9.7900  -9.7880  -9.7307
    -9.4925  -9.4913  -9.3660  -9.3642  -9.3300  -9.2622  -8.9574  -8.9530
    -8.3938  -8.2664  -8.2660  -8.2287  -8.1118  -7.5371  -7.5227  -7.4798
    -7.3213  -7.2868  -7.2194  -7.0840  -7.0818  -6.8813  -6.8800  -6.8260
    -6.8247  -6.7945  -6.7905  -6.6671  -6.5844  -6.5833  -6.4983  -6.4395
    -5.9945  -5.9868  -5.8141  -5.8086  -5.4173  -5.3742  -5.3720  -5.2687
    -4.9033  -4.8914  -4.8871  -4.8824  -4.8222  -4.8184  -4.4934  -4.4914
    -4.3367  -3.9902  -3.9901  -3.8477  -3.7419  -3.7412  -3.6276  -3.6242
    -3.3891  -2.9577  -2.0389  -1.8772  -1.8741  -1.7747  -1.7733  -0.7971
    -0.5374  -0.5364   0.8995   0.9054   0.9147   1.1393   1.1450   1.7289
     2.7284   2.7998   2.8272   2.8375   3.0297   3.0595   3.5533   3.7066
     3.8873   4.0294   4.0305   4.0601   4.1880   4.4108

          k = 0.0000-0.5774 0.0000 ( 87818 PWs)   bands (ev):

   -19.7934 -19.7418 -19.4298 -19.1869 -18.5261 -18.4894 -18.3457 -18.0496
   -17.9330 -17.7605 -17.0735 -16.9671 -16.9075 -16.6654 -15.8635 -15.7161
   -15.4955 -15.4770 -15.3552 -15.1987 -15.1748 -14.8934 -14.4420 -14.0073
   -13.7821 -13.3336 -12.9847 -12.9159 -12.6646 -12.5808 -12.2845 -11.9395
   -11.5185 -11.4990 -11.2591 -11.0959 -10.7929 -10.5638 -10.5150 -10.3382
   -10.2661  -9.8280  -9.3725  -9.1972  -8.9884  -8.9724  -8.9196  -8.4217
    -8.3319  -8.0830  -8.0010  -7.9522  -7.7875  -7.7458  -7.6665  -7.5033
    -7.4314  -7.4037  -7.3407  -7.3098  -7.2704  -7.0260  -6.9674  -6.9528
    -6.8162  -6.6116  -6.5716  -6.5254  -6.4173  -6.1596  -6.1416  -6.1059
    -6.0039  -5.9711  -5.8479  -5.7972  -5.7348  -5.6206  -5.5699  -5.4570
    -5.4420  -5.2708  -5.0816  -4.7733  -4.5692  -4.5552  -4.4543  -4.4393
    -4.3217  -4.2958  -4.1737  -3.8898  -3.2041  -3.1958  -3.0973  -3.0125
    -2.9080  -2.9072  -2.8328  -2.8150  -2.6765  -1.8939  -1.3612  -0.7628
    -0.6709  -0.5729   0.6867   0.8510   1.4691   1.7029   1.7273   1.9597
     2.0966   2.3380   2.3498   2.5364   2.9836   3.0422   3.2596   3.6332
     3.7603   4.0194   4.0341   4.2010   4.2594   4.5937

          k = 0.5000-0.2887 0.0000 ( 87818 PWs)   bands (ev):

   -19.7923 -19.7427 -19.4314 -19.1852 -18.5265 -18.4871 -18.3472 -18.0496
   -17.9322 -17.7635 -17.0743 -16.9676 -16.9066 -16.6610 -15.8641 -15.7170
   -15.4952 -15.4766 -15.3560 -15.1985 -15.1770 -14.8936 -14.4400 -14.0072
   -13.7829 -13.3350 -12.9852 -12.9152 -12.6655 -12.5773 -12.2854 -11.9359
   -11.5193 -11.5013 -11.2587 -11.0957 -10.7919 -10.5640 -10.5168 -10.3402
   -10.2639  -9.8284  -9.3777  -9.1972  -8.9859  -8.9722  -8.9219  -8.4191
    -8.3308  -8.0820  -7.9979  -7.9423  -7.7999  -7.7441  -7.6683  -7.5055
    -7.4664  -7.3946  -7.3232  -7.2968  -7.2678  -7.0270  -6.9546  -6.9354
    -6.8171  -6.6157  -6.6093  -6.5292  -6.4106  -6.1647  -6.1418  -6.1078
    -6.0034  -5.9717  -5.8499  -5.7992  -5.7390  -5.6166  -5.5715  -5.4557
    -5.4267  -5.2649  -5.0786  -4.7742  -4.5727  -4.5545  -4.4493  -4.4431
    -4.3160  -4.2933  -4.1834  -3.8894  -3.2151  -3.1939  -3.0983  -3.0071
    -2.9095  -2.9067  -2.8355  -2.8197  -2.6750  -1.8830  -1.3596  -0.7671
    -0.6740  -0.5710   0.6854   0.8548   1.4862   1.7029   1.7248   1.9434
     2.0865   2.3330   2.3507   2.5387   3.0119   3.0395   3.2798   3.5295
[...]

     total cpu time spent up to now is    35288.8 secs

     total energy              =    -733.54079833 Ry
     Harris-Foulkes estimate   =    -733.54094893 Ry
     estimated scf accuracy    <       0.00087202 Ry

     iteration #  6     ecut=    70.00 Ry     beta= 0.30
     Davidson diagonalization with overlap
     ethr =  4.17E-07,  avg # of iterations =  1.8

     negative rho (up, down):  6.364E-04 0.000E+00

     total cpu time spent up to now is    35452.3 secs

     total energy              =    -733.54085852 Ry
     Harris-Foulkes estimate   =    -733.54092031 Ry
     estimated scf accuracy    <       0.00058315 Ry

     iteration #  7     ecut=    70.00 Ry     beta= 0.30
     Davidson diagonalization with overlap
     ethr =  2.79E-07,  avg # of iterations =  1.5

     negative rho (up, down):  6.383E-04 0.000E+00

     total cpu time spent up to now is    35616.1 secs

     total energy              =    -733.54085895 Ry
     Harris-Foulkes estimate   =    -733.54088069 Ry
     estimated scf accuracy    <       0.00014905 Ry

     iteration #  8     ecut=    70.00 Ry     beta= 0.30
     Davidson diagonalization with overlap
     ethr =  7.13E-08,  avg # of iterations =  1.2

     negative rho (up, down):  6.391E-04 0.000E+00

     total cpu time spent up to now is    35779.5 secs

     total energy              =    -733.54086163 Ry
     Harris-Foulkes estimate   =    -733.54087817 Ry
     estimated scf accuracy    <       0.00015646 Ry

     iteration #  9     ecut=    70.00 Ry     beta= 0.30
     Davidson diagonalization with overlap
     ethr =  7.13E-08,  avg # of iterations =  1.0

     negative rho (up, down):  6.397E-04 0.000E+00

     total cpu time spent up to now is    35942.8 secs

     total energy              =    -733.54086915 Ry
     Harris-Foulkes estimate   =    -733.54087587 Ry
     estimated scf accuracy    <       0.00007283 Ry

     iteration # 10     ecut=    70.00 Ry     beta= 0.30
     Davidson diagonalization with overlap
     ethr =  3.48E-08,  avg # of iterations =  1.0

     negative rho (up, down):  6.401E-04 0.000E+00

     total cpu time spent up to now is    36106.0 secs

     total energy              =    -733.54087304 Ry
     Harris-Foulkes estimate   =    -733.54087378 Ry
     estimated scf accuracy    <       0.00001403 Ry

     iteration # 11     ecut=    70.00 Ry     beta= 0.30
     Davidson diagonalization with overlap
     ethr =  6.71E-09,  avg # of iterations =  1.0

     negative rho (up, down):  6.406E-04 0.000E+00

     total cpu time spent up to now is    36268.8 secs

     End of self-consistent calculation

          k = 0.0000 0.0000 0.0000 ( 87777 PWs)   bands (ev):

   -19.9395 -19.2680 -19.1769 -18.9973 -18.9865 -18.9201 -18.6770 -17.3354
   -17.3277 -17.3161 -17.0911 -17.0620 -16.7168 -16.4614 -16.4079 -16.3380
   -16.1451 -16.1223 -15.3185 -14.4068 -14.1473 -14.1421 -14.0630 -14.0455
   -13.5567 -13.2270 -13.2114 -13.1495 -12.8634 -12.8472 -12.4223 -11.9151
   -11.8919 -11.8610 -11.5295 -11.5185 -10.5030  -9.6837  -9.6807  -9.5719
    -9.4182  -9.4067  -9.3432  -9.3337  -9.3197  -9.2752  -8.9342  -8.9063
    -8.2837  -8.1650  -8.1601  -8.1567  -8.0437  -7.5380  -7.5190  -7.2688
    -7.2062  -7.1184  -7.0270  -6.9855  -6.9244  -6.8476  -6.8355  -6.8214
    -6.7929  -6.7390  -6.7233  -6.6753  -6.6042  -6.5878  -6.4955  -6.2009
    -6.0975  -5.9689  -5.5306  -5.4688  -5.3162  -5.3075  -5.2616  -5.2228
    -5.0276  -4.9343  -4.8768  -4.8173  -4.7587  -4.6986  -4.4894  -4.4777
    -4.2923  -3.9710  -3.9533  -3.9283  -3.8553  -3.7812  -3.7619  -3.5947
    -3.5914  -2.9196  -2.0160  -1.8952  -1.8885  -1.8009  -1.7553  -0.9280
    -0.2419  -0.2212   0.8896   0.8915   0.9395   1.0505   1.1623   1.6456
     2.6419   2.7590   2.8167   2.8262   2.9181   2.9841   3.3063   3.6796
     3.8820   4.0060   4.0099   4.0362   4.1208   4.4449

          k = 0.0000-0.5774 0.0000 ( 87818 PWs)   bands (ev):

   -19.7462 -19.6893 -19.3297 -19.1858 -18.4754 -18.4431 -18.2967 -18.0562
   -17.8864 -17.6632 -17.0057 -16.9790 -16.9176 -16.5970 -15.7497 -15.6452
   -15.4815 -15.4369 -15.3385 -15.1650 -15.1598 -14.8582 -14.3537 -13.9816
   -13.7449 -13.3018 -12.9329 -12.8925 -12.6120 -12.5240 -12.2357 -11.8576
   -11.4696 -11.4276 -11.2365 -11.0097 -10.6813 -10.5392 -10.4880 -10.2980
   -10.2031  -9.7353  -9.2740  -9.1511  -8.9835  -8.8993  -8.8685  -8.4039
    -8.1809  -8.0297  -7.9102  -7.7954  -7.7473  -7.6500  -7.6448  -7.4653
    -7.3686  -7.2987  -7.2771  -7.2298  -7.1899  -7.0433  -6.8806  -6.8107
    -6.5418  -6.4703  -6.4170  -6.3330  -6.2820  -6.1660  -6.1455  -6.1049
    -6.0235  -5.9566  -5.8328  -5.8007  -5.7549  -5.6278  -5.4206  -5.3395
    -5.3338  -5.1225  -4.8551  -4.8250  -4.5779  -4.5778  -4.4850  -4.4336
    -4.3859  -4.2887  -3.9997  -3.9078  -3.6716  -3.1180  -3.0704  -2.9960
    -2.9621  -2.8837  -2.8560  -2.8159  -2.7324  -1.9056  -1.4378  -0.8484
    -0.3123  -0.2149   0.7021   0.8150   1.4164   1.6788   1.6807   1.9578
     2.0273   2.2964   2.3416   2.3880   2.8530   2.9955   3.2586   3.6086
     3.6287   3.9971   4.0111   4.0801   4.2850   4.3844

          k = 0.5000-0.2887 0.0000 ( 87818 PWs)   bands (ev):

   -19.7408 -19.6882 -19.3707 -19.1492 -18.4784 -18.3859 -18.3346 -18.0472
   -17.9057 -17.7201 -17.0006 -16.9361 -16.9040 -16.5615 -15.8042 -15.6641
   -15.4705 -15.4643 -15.3020 -15.1711 -15.1519 -14.8696 -14.3736 -13.9554
   -13.7466 -13.2935 -12.9133 -12.8675 -12.6055 -12.5386 -12.2449 -11.8639
   -11.4938 -11.4532 -11.2271 -11.0061 -10.6735 -10.5379 -10.4856 -10.2920
   -10.2304  -9.7343  -9.2504  -9.1045  -8.9891  -8.9040  -8.8712  -8.3980
    -8.2214  -8.0411  -7.9119  -7.7964  -7.7420  -7.6854  -7.6000  -7.4496
    -7.3879  -7.3379  -7.3077  -7.2330  -7.1202  -7.0248  -6.9242  -6.7735
    -6.5523  -6.4703  -6.4060  -6.3419  -6.2755  -6.1726  -6.1333  -6.0682
    -6.0286  -5.9013  -5.8425  -5.7905  -5.7258  -5.6489  -5.5581  -5.3743
    -5.3318  -5.0988  -4.8800  -4.7480  -4.5838  -4.5584  -4.4958  -4.4574
    -4.4317  -4.2079  -4.0255  -3.8402  -3.6832  -3.2131  -3.0737  -3.0173
    -2.9372  -2.8829  -2.8696  -2.8375  -2.6977  -1.8545  -1.3770  -0.9219
    -0.3033  -0.2263   0.6735   0.8369   1.4820   1.6841   1.6885   1.8563
     2.0487   2.3035   2.3421   2.4494   2.7586   3.0239   3.2521   3.5221
     3.7229   3.9725   4.0055   4.0486   4.3002   4.5151

          k =-0.5000-0.2887 0.0000 ( 87818 PWs)   bands (ev):

   -19.7417 -19.6869 -19.3714 -19.1489 -18.4783 -18.3858 -18.3343 -18.0478
   -17.9060 -17.7193 -17.0027 -16.9345 -16.9033 -16.5622 -15.8035 -15.6643
   -15.4709 -15.4638 -15.3023 -15.1710 -15.1520 -14.8695 -14.3734 -13.9560
   -13.7470 -13.2922 -12.9136 -12.8676 -12.6055 -12.5389 -12.2448 -11.8646
   -11.4931 -11.4536 -11.2262 -11.0064 -10.6739 -10.5379 -10.4856 -10.2921
   -10.2303  -9.7334  -9.2510  -9.1044  -8.9895  -8.9037  -8.8722  -8.3984
    -8.2207  -8.0418  -7.9114  -7.7972  -7.7409  -7.6851  -7.6008  -7.4492
    -7.3869  -7.3383  -7.3070  -7.2327  -7.1199  -7.0254  -6.9237  -6.7747
    -6.5520  -6.4715  -6.4060  -6.3422  -6.2752  -6.1730  -6.1338  -6.0678
    -6.0283  -5.9026  -5.8436  -5.7917  -5.7255  -5.6465  -5.5582  -5.3729
    -5.3306  -5.0987  -4.8802  -4.7495  -4.5837  -4.5580  -4.4957  -4.4576
    -4.4310  -4.2081  -4.0255  -3.8402  -3.6831  -3.2131  -3.0738  -3.0178
    -2.9373  -2.8830  -2.8694  -2.8383  -2.6972  -1.8539  -1.3774  -0.9225
    -0.3034  -0.2252   0.6738   0.8363   1.4827   1.6843   1.6884   1.8558
     2.0476   2.3035   2.3414   2.4508   2.7583   3.0241   3.2524   3.5222
     3.7235   3.9729   4.0059   4.0472   4.3004   4.5153

     the Fermi energy is    -0.3011 ev

!    total energy              =    -733.54087310 Ry
     Harris-Foulkes estimate   =    -733.54087338 Ry
     estimated scf accuracy    <       0.00000040 Ry

     The total energy is the sum of the following terms:

     one-electron contribution =   -2466.87879784 Ry
     hartree contribution      =    1290.67213022 Ry
     xc contribution           =    -273.64679154 Ry
     ewald contribution        =     716.45617368 Ry
     DFT-D3 Dispersion         =      -0.14345032 Ry
     smearing contrib. (-TS)   =      -0.00013729 Ry

     convergence has been achieved in  11 iterations

     negative rho (up, down):  6.406E-04 0.000E+00

     Forces acting on atoms (cartesian axes, Ry/au):

     atom    1 type  1   force =    -0.00000237    0.00143430    0.00071685
     atom    2 type  2   force =     0.00000559    0.00007252    0.00325245
     atom    3 type  3   force =     0.00028780   -0.01056794   -0.11181569
     atom    4 type  4   force =     0.00035843    0.00047326    0.00048544
     atom    5 type  4   force =    -0.00570824   -0.01248799   -0.00339277
     atom    6 type  4   force =    -0.00109868   -0.00652420    0.00188534
     atom    7 type  4   force =     0.01107095    0.00966714    0.00116490
     atom    8 type  4   force =    -0.00627089    0.00354337   -0.00198784
     atom    9 type  4   force =    -0.01019354   -0.00349586    0.00472525
     atom   10 type  4   force =     0.00000093   -0.00002904    0.00159860
     atom   11 type  4   force =    -0.00001014    0.00124656    0.00019480
     atom   12 type  4   force =    -0.00012116   -0.00105803    0.00089587
     atom   13 type  4   force =     0.00050002    0.00165319    0.00013443
     atom   14 type  4   force =     0.00000764   -0.00264742    0.00037702
     atom   15 type  4   force =    -0.00003844    0.00043692    0.00224359
     atom   16 type  4   force =    -0.03925252   -0.11107585   -0.01052485
     atom   17 type  4   force =     0.02219215    0.03479438    0.02563271
     atom   18 type  4   force =    -0.04367584   -0.00702019   -0.00521312
     atom   19 type  4   force =     0.03203462    0.00289893   -0.00522897
     atom   20 type  4   force =    -0.06934000    0.01300894    0.00086332
     atom   21 type  4   force =    -0.00007370    0.00203990   -0.00226915
     atom   22 type  4   force =     0.00011889   -0.00107237    0.00088261
     atom   23 type  4   force =    -0.00054524    0.00165785    0.00013134
     atom   24 type  4   force =    -0.00035463    0.00047574    0.00049709
     atom   25 type  4   force =     0.00576105   -0.01236190   -0.00333846
     atom   26 type  4   force =     0.03869283   -0.11041908   -0.01055352
     atom   27 type  4   force =    -0.02313602    0.03580409    0.02560459
     atom   28 type  4   force =     0.00122966    0.02731284    0.03624152
     atom   29 type  4   force =    -0.01685571   -0.03040159    0.01973948
     atom   30 type  4   force =     0.01914845   -0.02016245   -0.00868408
     atom   31 type  4   force =    -0.05957161    0.07276108    0.00836974
     atom   32 type  4   force =    -0.00522831    0.00898126    0.00420094
     atom   33 type  4   force =    -0.00456174    0.00276327   -0.00038612
     atom   34 type  4   force =    -0.00084512    0.00180234   -0.00012372
     atom   35 type  4   force =     0.00107382   -0.00650688    0.00189308
     atom   36 type  4   force =    -0.01108527    0.00966239    0.00120533
     atom   37 type  4   force =     0.04221974   -0.00663084   -0.00542647
     atom   38 type  4   force =    -0.03092454    0.00336095   -0.00525393
     atom   39 type  4   force =     0.01781281   -0.03072046    0.01942666
     atom   40 type  4   force =    -0.01783662   -0.01852527   -0.00848340
     atom   41 type  4   force =    -0.00036100    0.06433254    0.00035627
     atom   42 type  4   force =    -0.00000450   -0.00883112    0.00680135
     atom   43 type  4   force =     0.00452474    0.00276852   -0.00040673
     atom   44 type  4   force =     0.00083045    0.00179365   -0.00013174
     atom   45 type  4   force =     0.00001054   -0.00074927    0.00023373
     atom   46 type  4   force =     0.00000164    0.00001428   -0.00059259
     atom   47 type  4   force =     0.00620407    0.00354366   -0.00199993
     atom   48 type  4   force =     0.01007357   -0.00349653    0.00478829
     atom   49 type  4   force =     0.06847536    0.01273453    0.00084120
     atom   50 type  4   force =     0.00003389    0.00206138   -0.00228805
     atom   51 type  4   force =     0.05913831    0.07281017    0.00845907
     atom   52 type  4   force =     0.00528785    0.00887434    0.00425829

     Total force =     0.162472     Total SCF correction =     0.002645

     number of scf cycles    =  15
     number of bfgs steps    =  14

     energy   old            =    -733.5152246389 Ry
     energy   new            =    -733.5408730987 Ry

     CASE: energy  _new < energy  _old

     new trust radius        =       0.1635072459 bohr
     new conv_thr            =       0.0000010000 Ry


ATOMIC_POSITIONS (angstrom)
H1       2.465390305   5.735298204   2.563075674
H2       2.465414513   6.488137247   2.594863826
Cu       2.466338581   5.579466672  -0.610187572
C        0.000000000   0.000000000   0.000000000    0   0   0
C        0.000000000   1.423340089   0.000000000    0   0   0
C       -1.232648675   2.135010133   0.000000000    0   0   0
C       -1.232648675   3.558350222   0.000000000    0   0   0
C       -2.465297350   4.270020266   0.000000000    0   0   0
C       -2.465297350   5.693360355   0.000000000    0   0   0
C       -3.697946025   6.405030399   0.000000000    0   0   0
C       -3.697946025   7.828370488   0.000000000    0   0   0
C       -4.930594700   8.540040532   0.000000000    0   0   0
C       -4.930594700   9.963380621   0.000000000    0   0   0
C        2.465297350   0.000000000   0.000000000    0   0   0
C        2.465297350   1.423340089   0.000000000    0   0   0
C        1.232648675   2.135010133   0.000000000    0   0   0
C        1.202306549   3.510486840   0.024685213
C        0.000000000   4.270020266   0.000000000    0   0   0
C       -0.051531417   5.697870104  -0.061398631
C       -1.232648675   6.405030399   0.000000000    0   0   0
C       -1.232648675   7.828370488   0.000000000    0   0   0
C       -2.465297350   8.540040532   0.000000000    0   0   0
C       -2.465297350   9.963380621   0.000000000    0   0   0
C        4.930594700   0.000000000   0.000000000    0   0   0
C        4.930594700   1.423340089   0.000000000    0   0   0
C        3.697946025   2.135010133   0.000000000    0   0   0
C        3.727762266   3.510237542   0.024508778
C        2.464316044   4.024172872   0.192729669
C        1.050695907   6.534286850  -0.216839348
C        1.212108313   7.880169665  -0.033649345
C        0.000000000   8.540040532   0.000000000    0   0   0
C        0.000000000   9.963380621   0.000000000    0   0   0
C        7.395892050   0.000000000   0.000000000    0   0   0
C        7.395892050   1.423340089   0.000000000    0   0   0
C        6.163243375   2.135010133   0.000000000    0   0   0
C        6.163243375   3.558350222   0.000000000    0   0   0
C        4.930594700   4.270020266   0.000000000    0   0   0
C        4.981602113   5.697823274  -0.062354658
C        3.880062316   6.535436108  -0.219032756
C        3.717808026   7.880031019  -0.034260130
C        2.465297350   8.540040532   0.000000000    0   0   0
C        2.465297350   9.963380621   0.000000000    0   0   0
C        9.861189400   0.000000000   0.000000000    0   0   0
C        9.861189400   1.423340089   0.000000000    0   0   0
C        8.628540725   2.135010133   0.000000000    0   0   0
C        8.628540725   3.558350222   0.000000000    0   0   0
C        7.395892050   4.270020266   0.000000000    0   0   0
C        7.395892050   5.693360355   0.000000000    0   0   0
C        6.163243375   6.405030399   0.000000000    0   0   0
C        6.163243375   7.828370488   0.000000000    0   0   0
C        4.930594700   8.540040532   0.000000000    0   0   0
C        4.930594700   9.963380621   0.000000000    0   0   0



     Writing output data file gr-12.save/
     NEW-OLD atomic charge density approx. for the potential

     Check: negative core charge=   -0.000002

     negative rho (up, down):  5.995E-04 0.000E+00

     total cpu time spent up to now is    36361.8 secs

     Self-consistent Calculation

     iteration #  1     ecut=    70.00 Ry     beta= 0.30
     Davidson diagonalization with overlap
     ethr =  1.00E-06,  avg # of iterations =  6.0

     negative rho (up, down):  6.092E-04 0.000E+00

     total cpu time spent up to now is    36774.5 secs

     total energy              =    -733.55948894 Ry
     Harris-Foulkes estimate   =    -733.56966977 Ry
     estimated scf accuracy    <       0.02524142 Ry

     iteration #  2     ecut=    70.00 Ry     beta= 0.30
     Davidson diagonalization with overlap
     ethr =  1.21E-05,  avg # of iterations =  2.8

     negative rho (up, down):  6.120E-04 0.000E+00

     total cpu time spent up to now is    36958.9 secs

     total energy              =    -733.55735288 Ry
     Harris-Foulkes estimate   =    -733.57367296 Ry
     estimated scf accuracy    <       0.09855932 Ry

     iteration #  3     ecut=    70.00 Ry     beta= 0.30
     Davidson diagonalization with overlap
     ethr =  1.21E-05,  avg # of iterations =  2.2

     negative rho (up, down):  6.191E-04 0.000E+00

     total cpu time spent up to now is    37125.3 secs

     total energy              =    -733.56482316 Ry
     Harris-Foulkes estimate   =    -733.56610706 Ry
     estimated scf accuracy    <       0.00879692 Ry

     iteration #  4     ecut=    70.00 Ry     beta= 0.30
     Davidson diagonalization with overlap
     ethr =  4.21E-06,  avg # of iterations =  1.0

     negative rho (up, down):  6.252E-04 0.000E+00

     total cpu time spent up to now is    37288.9 secs

     total energy              =    -733.56509137 Ry
     Harris-Foulkes estimate   =    -733.56532471 Ry
     estimated scf accuracy    <       0.00174769 Ry

     iteration #  5     ecut=    70.00 Ry     beta= 0.30
     Davidson diagonalization with overlap
     ethr =  8.36E-07,  avg # of iterations =  2.0

     negative rho (up, down):  6.276E-04 0.000E+00

     total cpu time spent up to now is    37452.7 secs

     total energy              =    -733.56517814 Ry
     Harris-Foulkes estimate   =    -733.56525101 Ry
     estimated scf accuracy    <       0.00064652 Ry

     iteration #  6     ecut=    70.00 Ry     beta= 0.30
     Davidson diagonalization with overlap
     ethr =  3.09E-07,  avg # of iterations =  1.8

     negative rho (up, down):  6.299E-04 0.000E+00

     total cpu time spent up to now is    37616.5 secs

     total energy              =    -733.56520711 Ry
     Harris-Foulkes estimate   =    -733.56522540 Ry
     estimated scf accuracy    <       0.00010539 Ry

     iteration #  7     ecut=    70.00 Ry     beta= 0.30
     Davidson diagonalization with overlap
     ethr =  5.04E-08,  avg # of iterations =  2.8

     negative rho (up, down):  6.307E-04 0.000E+00

     total cpu time spent up to now is    37783.5 secs

     total energy              =    -733.56521094 Ry
     Harris-Foulkes estimate   =    -733.56523174 Ry
     estimated scf accuracy    <       0.00031438 Ry

     iteration #  8     ecut=    70.00 Ry     beta= 0.30
     Davidson diagonalization with overlap
     ethr =  5.04E-08,  avg # of iterations =  1.2

     negative rho (up, down):  6.322E-04 0.000E+00

     total cpu time spent up to now is    37949.2 secs

     total energy              =    -733.56521530 Ry
     Harris-Foulkes estimate   =    -733.56522120 Ry
     estimated scf accuracy    <       0.00003906 Ry

     iteration #  9     ecut=    70.00 Ry     beta= 0.30
     Davidson diagonalization with overlap
     ethr =  1.87E-08,  avg # of iterations =  1.2

     negative rho (up, down):  6.327E-04 0.000E+00

     total cpu time spent up to now is    38115.1 secs

     total energy              =    -733.56520978 Ry
     Harris-Foulkes estimate   =    -733.56522567 Ry
     estimated scf accuracy    <       0.00020964 Ry

     iteration # 10     ecut=    70.00 Ry     beta= 0.30
     Davidson diagonalization with overlap
