
     Program PWSCF v.6.4.1 starts on 10Mar2022 at 12:47: 4 

     This program is part of the open-source Quantum ESPRESSO suite
     for quantum simulation of materials; please cite
         "P. Giannozzi et al., J. Phys.:Condens. Matter 21 395502 (2009);
         "P. Giannozzi et al., J. Phys.:Condens. Matter 29 465901 (2017);
          URL http://www.quantum-espresso.org", 
     in publications or presentations arising from this work. More details at
     http://www.quantum-espresso.org/quote

     Parallel version (MPI), running on     6 processors

     MPI processes distributed on     1 nodes
     R & G space division:  proc/nbgrp/npool/nimage =       6
     Reading input from cr-2.79.in

     Current dimensions of program PWSCF are:
     Max number of different atomic species (ntypx) = 10
     Max number of k-points (npk) =  40000
     Max angular momentum in pseudopotentials (lmaxx) =  3
               file Cr.pbe-spn-rrkjus_psl.1.0.0.UPF: wavefunction(s)  3P renormalized
               file Cr.pbe-spn-rrkjus_psl.1.0.0.UPF: wavefunction(s)  3P renormalized

     Subspace diagonalization in iterative solution of the eigenvalue problem:
     a serial algorithm will be used

     Message from routine setup:
     DEPRECATED: symmetry with ibrav=0, use correct ibrav instead

     Parallelization info
     --------------------
     sticks:   dense  smooth     PW     G-vecs:    dense   smooth      PW
     Min         294     117     36                 9336     2357     395
     Max         295     119     38                 9339     2359     396
     Sum        1765     709    221                56019    14147    2373



     bravais-lattice index     =            0
     lattice parameter (alat)  =       5.2723  a.u.
     unit-cell volume          =     146.5579 (a.u.)^3
     number of atoms/cell      =            2
     number of atomic types    =            2
     number of electrons       =        28.00
     number of Kohn-Sham states=           18
     kinetic-energy cutoff     =      80.0000  Ry
     charge density cutoff     =     800.0000  Ry
     convergence threshold     =      1.0E-06
     mixing beta               =       0.7000
     number of iterations used =            8  plain     mixing
     Exchange-correlation      = PBE ( 1  4  3  4 0 0)

     celldm(1)=   5.272336  celldm(2)=   0.000000  celldm(3)=   0.000000
     celldm(4)=   0.000000  celldm(5)=   0.000000  celldm(6)=   0.000000

     crystal axes: (cart. coord. in units of alat)
               a(1) = (   1.000000   0.000000   0.000000 )  
               a(2) = (   0.000000   1.000000   0.000000 )  
               a(3) = (   0.000000   0.000000   1.000000 )  

     reciprocal axes: (cart. coord. in units 2 pi/alat)
               b(1) = (  1.000000  0.000000  0.000000 )  
               b(2) = (  0.000000  1.000000  0.000000 )  
               b(3) = (  0.000000  0.000000  1.000000 )  


     PseudoPot. # 1 for Cr read from file:
     /home/cristian/Escritorio/Proyecto_Grafeno/pseudopotenciales/Cr.pbe-spn-rrkjus_psl.1.0.0.UPF
     MD5 check sum: 793d051e4f89dd1e3290b85340a92c0a
     Pseudo is Ultrasoft + core correction, Zval = 14.0
     Generated using "atomic" code by A. Dal Corso v.6.2.2
     Using radial grid of 1183 points,  6 beta functions with: 
                l(1) =   0
                l(2) =   0
                l(3) =   1
                l(4) =   1
                l(5) =   2
                l(6) =   2
     Q(r) pseudized with 0 coefficients 


     PseudoPot. # 2 for Cr read from file:
     /home/cristian/Escritorio/Proyecto_Grafeno/pseudopotenciales/Cr.pbe-spn-rrkjus_psl.1.0.0.UPF
     MD5 check sum: 793d051e4f89dd1e3290b85340a92c0a
     Pseudo is Ultrasoft + core correction, Zval = 14.0
     Generated using "atomic" code by A. Dal Corso v.6.2.2
     Using radial grid of 1183 points,  6 beta functions with: 
                l(1) =   0
                l(2) =   0
                l(3) =   1
                l(4) =   1
                l(5) =   2
                l(6) =   2
     Q(r) pseudized with 0 coefficients 


     atomic species   valence    mass     pseudopotential
        Cr1           14.00    51.99610     Cr( 1.00)
        Cr2           14.00    51.99610     Cr( 1.00)

     Starting magnetic structure 
     atomic species   magnetization
        Cr1          0.100
        Cr2         -0.100

     48 Sym. Ops., with inversion, found



   Cartesian axes

     site n.     atom                  positions (alat units)
         1           Cr1 tau(   1) = (   0.0000000   0.0000000   0.0000000  )
         2           Cr2 tau(   2) = (   0.5000000   0.5000000   0.5000000  )

     number of k points=    20  Methfessel-Paxton smearing, width (Ry)=  0.0300
                       cart. coord. in units 2pi/alat
        k(    1) = (   0.0625000   0.0625000   0.0625000), wk =   0.0156250
        k(    2) = (   0.0625000   0.0625000   0.1875000), wk =   0.0468750
        k(    3) = (   0.0625000   0.0625000   0.3125000), wk =   0.0468750
        k(    4) = (   0.0625000   0.0625000   0.4375000), wk =   0.0468750
        k(    5) = (   0.0625000   0.1875000   0.1875000), wk =   0.0468750
        k(    6) = (   0.0625000   0.1875000   0.3125000), wk =   0.0937500
        k(    7) = (   0.0625000   0.1875000   0.4375000), wk =   0.0937500
        k(    8) = (   0.0625000   0.3125000   0.3125000), wk =   0.0468750
        k(    9) = (   0.0625000   0.3125000   0.4375000), wk =   0.0937500
        k(   10) = (   0.0625000   0.4375000   0.4375000), wk =   0.0468750
        k(   11) = (   0.1875000   0.1875000   0.1875000), wk =   0.0156250
        k(   12) = (   0.1875000   0.1875000   0.3125000), wk =   0.0468750
        k(   13) = (   0.1875000   0.1875000   0.4375000), wk =   0.0468750
        k(   14) = (   0.1875000   0.3125000   0.3125000), wk =   0.0468750
        k(   15) = (   0.1875000   0.3125000   0.4375000), wk =   0.0937500
        k(   16) = (   0.1875000   0.4375000   0.4375000), wk =   0.0468750
        k(   17) = (   0.3125000   0.3125000   0.3125000), wk =   0.0156250
        k(   18) = (   0.3125000   0.3125000   0.4375000), wk =   0.0468750
        k(   19) = (   0.3125000   0.4375000   0.4375000), wk =   0.0468750
        k(   20) = (   0.4375000   0.4375000   0.4375000), wk =   0.0156250

     Dense  grid:    56019 G-vectors     FFT dimensions: (  48,  48,  48)

     Smooth grid:    14147 G-vectors     FFT dimensions: (  32,  32,  32)

     Estimated max dynamical RAM per process >      43.02 MB

     Estimated total dynamical RAM >     258.10 MB
     Generating pointlists ...
     new r_m :   0.3572 (alat units)  1.8835 (a.u.) for type    1
     new r_m :   0.3572 (alat units)  1.8835 (a.u.) for type    2

     Check: negative core charge=   -0.000002

     Initial potential from superposition of free atoms

     starting charge   27.99845, renormalised to   28.00000
     Starting wfcs are   20 randomized atomic wfcs

     total cpu time spent up to now is        2.1 secs

     Self-consistent Calculation

     iteration #  1     ecut=    80.00 Ry     beta= 0.70
     Davidson diagonalization with overlap
     ethr =  1.00E-02,  avg # of iterations =  2.4

     Threshold (ethr) on eigenvalues was too large:
     Diagonalizing with lowered threshold

     Davidson diagonalization with overlap
     ethr =  6.52E-04,  avg # of iterations =  2.1

     total cpu time spent up to now is        3.7 secs

     total energy              =    -349.89935529 Ry
     Harris-Foulkes estimate   =    -350.01926766 Ry
     estimated scf accuracy    <       0.19019749 Ry

     total magnetization       =     0.00 Bohr mag/cell
     absolute magnetization    =     1.88 Bohr mag/cell

     iteration #  2     ecut=    80.00 Ry     beta= 0.70
     Davidson diagonalization with overlap
     ethr =  6.79E-04,  avg # of iterations =  3.0

     total cpu time spent up to now is        4.8 secs

     total energy              =    -349.93822001 Ry
     Harris-Foulkes estimate   =    -350.03234121 Ry
     estimated scf accuracy    <       0.18832994 Ry

     total magnetization       =    -0.00 Bohr mag/cell
     absolute magnetization    =     2.16 Bohr mag/cell

     iteration #  3     ecut=    80.00 Ry     beta= 0.70
     Davidson diagonalization with overlap
     ethr =  6.73E-04,  avg # of iterations =  2.9

     total cpu time spent up to now is        5.7 secs

     total energy              =    -349.97909932 Ry
     Harris-Foulkes estimate   =    -349.97939746 Ry
     estimated scf accuracy    <       0.00251826 Ry

     total magnetization       =    -0.00 Bohr mag/cell
     absolute magnetization    =     1.94 Bohr mag/cell

     iteration #  4     ecut=    80.00 Ry     beta= 0.70
     Davidson diagonalization with overlap
     ethr =  8.99E-06,  avg # of iterations =  3.9

     total cpu time spent up to now is        6.9 secs

     total energy              =    -349.97294320 Ry
     Harris-Foulkes estimate   =    -349.98789311 Ry
     estimated scf accuracy    <       0.15060550 Ry

     total magnetization       =     0.03 Bohr mag/cell
     absolute magnetization    =     1.81 Bohr mag/cell

     iteration #  5     ecut=    80.00 Ry     beta= 0.70
     Davidson diagonalization with overlap
     ethr =  8.99E-06,  avg # of iterations =  3.9

     total cpu time spent up to now is        8.0 secs

     total energy              =    -349.98037674 Ry
     Harris-Foulkes estimate   =    -349.98029172 Ry
     estimated scf accuracy    <       0.00015568 Ry

     total magnetization       =    -0.00 Bohr mag/cell
     absolute magnetization    =     1.84 Bohr mag/cell

     iteration #  6     ecut=    80.00 Ry     beta= 0.70
     Davidson diagonalization with overlap
     ethr =  5.56E-07,  avg # of iterations =  3.8

     total cpu time spent up to now is        8.9 secs

     total energy              =    -349.98033275 Ry
     Harris-Foulkes estimate   =    -349.98048274 Ry
     estimated scf accuracy    <       0.00007216 Ry

     total magnetization       =     0.00 Bohr mag/cell
     absolute magnetization    =     1.74 Bohr mag/cell

     iteration #  7     ecut=    80.00 Ry     beta= 0.70
     Davidson diagonalization with overlap
     ethr =  2.58E-07,  avg # of iterations =  4.0

     total cpu time spent up to now is        9.9 secs

     total energy              =    -349.98022292 Ry
     Harris-Foulkes estimate   =    -349.98074043 Ry
     estimated scf accuracy    <       0.00002010 Ry

     total magnetization       =     0.00 Bohr mag/cell
     absolute magnetization    =     1.55 Bohr mag/cell

     iteration #  8     ecut=    80.00 Ry     beta= 0.70
     Davidson diagonalization with overlap
     ethr =  7.18E-08,  avg # of iterations =  4.6

     total cpu time spent up to now is       11.2 secs

     total energy              =    -349.98064301 Ry
     Harris-Foulkes estimate   =    -349.98089961 Ry
     estimated scf accuracy    <       0.00000311 Ry

     total magnetization       =     0.00 Bohr mag/cell
     absolute magnetization    =     1.29 Bohr mag/cell

     iteration #  9     ecut=    80.00 Ry     beta= 0.70
     Davidson diagonalization with overlap
     ethr =  1.11E-08,  avg # of iterations =  5.0

     Magnetic moment per site:
     atom:    1    charge:   12.1791    magn:    0.5252    constr:    0.0000
     atom:    2    charge:   12.1794    magn:   -0.5252    constr:    0.0000

     total cpu time spent up to now is       12.5 secs

     End of self-consistent calculation

 ------ SPIN UP ------------


          k = 0.0625 0.0625 0.0625 (  1785 PWs)   bands (ev):

   -51.0500 -50.3400 -22.4321 -22.4321 -22.3858 -21.5165 -21.4663 -21.4663
    13.1454  16.4219  16.4219  19.9376  19.9376  20.2399  22.2224  22.2224
    23.1485  23.6565

          k = 0.0625 0.0625 0.1875 (  1788 PWs)   bands (ev):

   -51.0266 -50.3528 -22.4682 -22.3848 -22.3331 -21.6209 -21.5074 -21.4882
    13.8345  16.7819  16.8263  19.7855  19.8735  20.6052  21.7699  22.2338
    22.4360  22.8602

          k = 0.0625 0.0625 0.3125 (  1771 PWs)   bands (ev):

   -50.9916 -50.3727 -22.4856 -22.3087 -22.2900 -21.7420 -21.5747 -21.5461
    15.0476  17.3216  17.4638  19.7720  19.7904  20.9604  21.0323  21.4504
    21.8752  22.7959

          k = 0.0625 0.0625 0.4375 (  1775 PWs)   bands (ev):

   -50.9651 -50.3884 -22.4798 -22.2852 -22.2448 -21.8030 -21.6325 -21.6034
    16.4033  17.3039  18.3696  19.3410  20.0170  20.5129  20.5798  21.1337
    21.8446  22.5797

          k = 0.0625 0.1875 0.1875 (  1781 PWs)   bands (ev):

   -51.0074 -50.3608 -22.5206 -22.3664 -22.2969 -21.7006 -21.5355 -21.4792
    14.4552  17.0353  17.2699  19.4233  19.6839  20.9406  21.4955  21.9227
    22.3200  22.3755

          k = 0.0625 0.1875 0.3125 (  1776 PWs)   bands (ev):

   -50.9791 -50.3733 -22.5649 -22.3526 -22.2895 -21.7325 -21.5873 -21.5076
    15.4913  17.3328  17.9545  19.2056  19.5446  20.2437  21.5663  21.7218
    22.0472  22.6333

          k = 0.0625 0.1875 0.4375 (  1771 PWs)   bands (ev):

   -50.9582 -50.3831 -22.5641 -22.4335 -22.2412 -21.6978 -21.6347 -21.5579
    16.5443  17.2319  18.6189  19.1002  19.4966  19.7269  21.2888  21.4870
    22.6438  23.1975

          k = 0.0625 0.3125 0.3125 (  1780 PWs)   bands (ev):

   -50.9612 -50.3745 -22.6463 -22.4802 -22.2564 -21.6758 -21.6031 -21.4949
    16.0537  17.1181  18.7780  18.8752  19.4432  19.7852  21.5420  22.0660
    22.4856  22.8958

          k = 0.0625 0.3125 0.4375 (  1766 PWs)   bands (ev):

   -50.9484 -50.3755 -22.6719 -22.6016 -22.2274 -21.6340 -21.5885 -21.5186
    16.4506  16.7873  18.6566  18.8822  19.7669  20.2127  21.7945  22.0511
    22.8894  23.6650

          k = 0.0625 0.4375 0.4375 (  1750 PWs)   bands (ev):

   -50.9414 -50.3702 -22.7351 -22.7125 -22.2171 -21.6236 -21.5275 -21.5048
    16.3123  16.4364  18.3674  18.4496  21.0388  21.5049  22.1565  22.3204
    22.6212  23.4671

          k = 0.1875 0.1875 0.1875 (  1773 PWs)   bands (ev):

   -50.9915 -50.3653 -22.4656 -22.4656 -22.3064 -21.6989 -21.5282 -21.5282
    15.0579  17.4931  17.4931  19.2401  19.2401  20.0509  22.0446  22.1680
    22.1680  23.0245

          k = 0.1875 0.1875 0.3125 (  1776 PWs)   bands (ev):

   -50.9684 -50.3722 -22.5482 -22.3886 -22.3757 -21.6739 -21.6098 -21.5283
    16.0218  17.8778  17.9251  18.9679  19.0621  19.3916  21.8973  22.2148
    22.5195  22.9262

          k = 0.1875 0.1875 0.4375 (  1765 PWs)   bands (ev):

   -50.9516 -50.3776 -22.5824 -22.4740 -22.2978 -21.6818 -21.6439 -21.5367
    16.9117  17.5739  18.3058  18.6679  19.2960  19.5184  21.6410  21.7541
    22.7277  23.0715

          k = 0.1875 0.3125 0.3125 (  1768 PWs)   bands (ev):

   -50.9531 -50.3707 -22.5807 -22.4974 -22.3538 -21.6622 -21.6012 -21.5553
    16.6861  17.6541  18.6137  18.7815  18.8188  19.0573  22.1317  22.2046
    22.4840  23.1593

          k = 0.1875 0.3125 0.4375 (  1765 PWs)   bands (ev):

   -50.9422 -50.3698 -22.6245 -22.5744 -22.2991 -21.6988 -21.5961 -21.5461
    17.0122  17.2965  18.4622  18.5464  19.4476  19.6390  22.0680  22.1535
    22.6714  23.0660

          k = 0.1875 0.4375 0.4375 (  1765 PWs)   bands (ev):

   -50.9355 -50.3643 -22.6625 -22.6523 -22.2776 -21.6884 -21.5733 -21.5710
    16.8615  16.9999  18.2765  18.3299  20.3500  20.3939  22.2741  22.4403
    22.5463  22.9732

          k = 0.3125 0.3125 0.3125 (  1776 PWs)   bands (ev):

   -50.9416 -50.3654 -22.5320 -22.4715 -22.4715 -21.6575 -21.6575 -21.5931
    17.6131  18.0312  18.4188  18.4188  18.6813  18.6813  22.4255  22.4255
    22.6354  22.6354

          k = 0.3125 0.3125 0.4375 (  1764 PWs)   bands (ev):

   -50.9334 -50.3617 -22.5747 -22.5335 -22.3730 -21.7508 -21.6466 -21.5967
    17.6242  17.8053  18.3142  18.5334  18.8968  19.2686  22.3077  22.4900
    22.5483  22.8858

          k = 0.3125 0.4375 0.4375 (  1773 PWs)   bands (ev):

   -50.9273 -50.3560 -22.5555 -22.5397 -22.3625 -21.7667 -21.6899 -21.6567
    17.6330  17.8568  18.2082  18.3380  19.3716  19.4680  22.4152  22.4935
    22.6944  22.9069

          k = 0.4375 0.4375 0.4375 (  1784 PWs)   bands (ev):

   -50.9214 -50.3501 -22.4713 -22.4261 -22.4261 -21.7991 -21.7991 -21.7516
    18.0284  18.2859  18.2859  18.8102  18.8102  18.8441  22.4867  22.4867
    22.9091  22.9091

 ------ SPIN DOWN ----------


          k = 0.0625 0.0625 0.0625 (  1785 PWs)   bands (ev):

   -51.0502 -50.3398 -22.4322 -22.4322 -22.3860 -21.5163 -21.4661 -21.4661
    13.1453  16.4219  16.4219  19.9376  19.9376  20.2399  22.2224  22.2224
    23.1486  23.6566

          k = 0.0625 0.0625 0.1875 (  1788 PWs)   bands (ev):

   -51.0268 -50.3525 -22.4684 -22.3850 -22.3332 -21.6207 -21.5072 -21.4880
    13.8345  16.7819  16.8263  19.7855  19.8735  20.6051  21.7699  22.2339
    22.4360  22.8603

          k = 0.0625 0.0625 0.3125 (  1771 PWs)   bands (ev):

   -50.9918 -50.3724 -22.4858 -22.3089 -22.2902 -21.7418 -21.5745 -21.5460
    15.0475  17.3215  17.4638  19.7720  19.7904  20.9602  21.0323  21.4506
    21.8753  22.7959

          k = 0.0625 0.0625 0.4375 (  1775 PWs)   bands (ev):

   -50.9654 -50.3881 -22.4800 -22.2854 -22.2450 -21.8028 -21.6322 -21.6031
    16.4032  17.3039  18.3696  19.3410  20.0170  20.5129  20.5797  21.1339
    21.8447  22.5798

          k = 0.0625 0.1875 0.1875 (  1781 PWs)   bands (ev):

   -51.0076 -50.3605 -22.5207 -22.3665 -22.2971 -21.7003 -21.5353 -21.4790
    14.4551  17.0353  17.2699  19.4233  19.6839  20.9405  21.4957  21.9227
    22.3200  22.3755

          k = 0.0625 0.1875 0.3125 (  1776 PWs)   bands (ev):

   -50.9794 -50.3730 -22.5650 -22.3528 -22.2897 -21.7323 -21.5871 -21.5075
    15.4913  17.3328  17.9545  19.2056  19.5446  20.2437  21.5663  21.7219
    22.0472  22.6333

          k = 0.0625 0.1875 0.4375 (  1771 PWs)   bands (ev):

   -50.9584 -50.3827 -22.5642 -22.4337 -22.2415 -21.6976 -21.6344 -21.5577
    16.5443  17.2319  18.6188  19.1002  19.4966  19.7269  21.2888  21.4871
    22.6438  23.1976

          k = 0.0625 0.3125 0.3125 (  1780 PWs)   bands (ev):

   -50.9615 -50.3742 -22.6464 -22.4804 -22.2566 -21.6756 -21.6029 -21.4948
    16.0536  17.1181  18.7780  18.8752  19.4431  19.7852  21.5421  22.0660
    22.4856  22.8959

          k = 0.0625 0.3125 0.4375 (  1766 PWs)   bands (ev):

   -50.9486 -50.3752 -22.6720 -22.6017 -22.2277 -21.6337 -21.5884 -21.5184
    16.4506  16.7873  18.6566  18.8822  19.7668  20.2127  21.7945  22.0511
    22.8894  23.6650

          k = 0.0625 0.4375 0.4375 (  1750 PWs)   bands (ev):

   -50.9416 -50.3698 -22.7352 -22.7126 -22.2173 -21.6234 -21.5274 -21.5047
    16.3123  16.4364  18.3674  18.4496  21.0387  21.5048  22.1565  22.3204
    22.6212  23.4671

          k = 0.1875 0.1875 0.1875 (  1773 PWs)   bands (ev):

   -50.9918 -50.3649 -22.4657 -22.4657 -22.3066 -21.6986 -21.5280 -21.5280
    15.0578  17.4931  17.4931  19.2400  19.2400  20.0508  22.0446  22.1680
    22.1680  23.0245

          k = 0.1875 0.1875 0.3125 (  1776 PWs)   bands (ev):

   -50.9687 -50.3718 -22.5484 -22.3888 -22.3759 -21.6737 -21.6096 -21.5282
    16.0217  17.8778  17.9251  18.9679  19.0621  19.3916  21.8973  22.2149
    22.5195  22.9262

          k = 0.1875 0.1875 0.4375 (  1765 PWs)   bands (ev):

   -50.9518 -50.3772 -22.5825 -22.4741 -22.2980 -21.6815 -21.6438 -21.5365
    16.9117  17.5738  18.3058  18.6679  19.2960  19.5184  21.6410  21.7541
    22.7276  23.0716

          k = 0.1875 0.3125 0.3125 (  1768 PWs)   bands (ev):

   -50.9534 -50.3704 -22.5808 -22.4976 -22.3540 -21.6620 -21.6010 -21.5552
    16.6861  17.6541  18.6137  18.7815  18.8188  19.0573  22.1318  22.2046
    22.4840  23.1593

          k = 0.1875 0.3125 0.4375 (  1765 PWs)   bands (ev):

   -50.9424 -50.3695 -22.6247 -22.5746 -22.2993 -21.6986 -21.5960 -21.5459
    17.0121  17.2965  18.4622  18.5464  19.4475  19.6390  22.0680  22.1535
    22.6713  23.0661

          k = 0.1875 0.4375 0.4375 (  1765 PWs)   bands (ev):

   -50.9358 -50.3640 -22.6626 -22.6524 -22.2778 -21.6882 -21.5731 -21.5708
    16.8614  16.9999  18.2765  18.3299  20.3500  20.3939  22.2741  22.4404
    22.5462  22.9734

          k = 0.3125 0.3125 0.3125 (  1776 PWs)   bands (ev):

   -50.9419 -50.3651 -22.5321 -22.4716 -22.4716 -21.6573 -21.6573 -21.5929
    17.6130  18.0313  18.4188  18.4188  18.6813  18.6813  22.4254  22.4254
    22.6355  22.6355

          k = 0.3125 0.3125 0.4375 (  1764 PWs)   bands (ev):

   -50.9337 -50.3613 -22.5748 -22.5337 -22.3732 -21.7506 -21.6464 -21.5965
    17.6242  17.8054  18.3141  18.5334  18.8967  19.2687  22.3076  22.4901
    22.5481  22.8860

          k = 0.3125 0.4375 0.4375 (  1773 PWs)   bands (ev):

   -50.9275 -50.3556 -22.5556 -22.5398 -22.3627 -21.7665 -21.6897 -21.6565
    17.6329  17.8568  18.2082  18.3380  19.3717  19.4680  22.4151  22.4933
    22.6946  22.9071

          k = 0.4375 0.4375 0.4375 (  1784 PWs)   bands (ev):

   -50.9216 -50.3497 -22.4715 -22.4263 -22.4263 -21.7989 -21.7989 -21.7514
    18.0284  18.2858  18.2858  18.8103  18.8103  18.8442  22.4865  22.4865
    22.9093  22.9093

     the Fermi energy is    21.0748 ev

!    total energy              =    -349.98092507 Ry
     Harris-Foulkes estimate   =    -349.98092492 Ry
     estimated scf accuracy    <       0.00000021 Ry

     The total energy is the sum of the following terms:

     one-electron contribution =    -104.65532713 Ry
     hartree contribution      =      69.95882766 Ry
     xc contribution           =     -44.70749631 Ry
     ewald contribution        =    -270.57826670 Ry
     smearing contrib. (-TS)   =       0.00133741 Ry

     total magnetization       =    -0.00 Bohr mag/cell
     absolute magnetization    =     1.13 Bohr mag/cell

     convergence has been achieved in   9 iterations

     Writing output data file cr-2.79.save/

     init_run     :      0.67s CPU      0.70s WALL (       1 calls)
     electrons    :     10.20s CPU     10.39s WALL (       1 calls)

     Called by init_run:
     wfcinit      :      0.26s CPU      0.26s WALL (       1 calls)
     potinit      :      0.05s CPU      0.06s WALL (       1 calls)
     hinit0       :      0.27s CPU      0.27s WALL (       1 calls)

     Called by electrons:
     c_bands      :      7.72s CPU      7.88s WALL (      10 calls)
     sum_band     :      1.73s CPU      1.74s WALL (      10 calls)
     v_of_rho     :      0.27s CPU      0.28s WALL (      10 calls)
     newd         :      0.51s CPU      0.53s WALL (      10 calls)
     mix_rho      :      0.02s CPU      0.02s WALL (      10 calls)

     Called by c_bands:
     init_us_2    :      0.11s CPU      0.11s WALL (     840 calls)
     cegterg      :      7.30s CPU      7.46s WALL (     400 calls)

     Called by sum_band:
     sum_band:bec :      0.01s CPU      0.01s WALL (     400 calls)
     addusdens    :      0.86s CPU      0.86s WALL (      10 calls)

     Called by *egterg:
     h_psi        :      3.87s CPU      3.95s WALL (    1867 calls)
     s_psi        :      0.42s CPU      0.43s WALL (    1867 calls)
     g_psi        :      0.03s CPU      0.03s WALL (    1427 calls)
     cdiaghg      :      1.24s CPU      1.26s WALL (    1787 calls)

     Called by h_psi:
     h_psi:pot    :      3.85s CPU      3.93s WALL (    1867 calls)
     h_psi:calbec :      0.54s CPU      0.56s WALL (    1867 calls)
     vloc_psi     :      2.89s CPU      2.95s WALL (    1867 calls)
     add_vuspsi   :      0.41s CPU      0.43s WALL (    1867 calls)

     General routines
     calbec       :      0.73s CPU      0.75s WALL (    2267 calls)
     fft          :      0.12s CPU      0.12s WALL (     246 calls)
     ffts         :      0.00s CPU      0.01s WALL (      40 calls)
     fftw         :      2.92s CPU      2.97s WALL (   50410 calls)
     interpolate  :      0.01s CPU      0.01s WALL (      20 calls)

     Parallel routines
     fft_scatt_xy :      0.41s CPU      0.42s WALL (   50696 calls)
     fft_scatt_yz :      1.47s CPU      1.50s WALL (   50696 calls)

     PWSCF        :     12.34s CPU     12.64s WALL


   This run was terminated on:  12:47:17  10Mar2022            

=------------------------------------------------------------------------------=
   JOB DONE.
=------------------------------------------------------------------------------=
