
     Program PWSCF v.6.4.1 starts on 10Mar2022 at 12:48: 8 

     This program is part of the open-source Quantum ESPRESSO suite
     for quantum simulation of materials; please cite
         "P. Giannozzi et al., J. Phys.:Condens. Matter 21 395502 (2009);
         "P. Giannozzi et al., J. Phys.:Condens. Matter 29 465901 (2017);
          URL http://www.quantum-espresso.org", 
     in publications or presentations arising from this work. More details at
     http://www.quantum-espresso.org/quote

     Parallel version (MPI), running on     6 processors

     MPI processes distributed on     1 nodes
     R & G space division:  proc/nbgrp/npool/nimage =       6
     Reading input from cr-2.89.in

     Current dimensions of program PWSCF are:
     Max number of different atomic species (ntypx) = 10
     Max number of k-points (npk) =  40000
     Max angular momentum in pseudopotentials (lmaxx) =  3
               file Cr.pbe-spn-rrkjus_psl.1.0.0.UPF: wavefunction(s)  3P renormalized
               file Cr.pbe-spn-rrkjus_psl.1.0.0.UPF: wavefunction(s)  3P renormalized

     Subspace diagonalization in iterative solution of the eigenvalue problem:
     a serial algorithm will be used

     Message from routine setup:
     DEPRECATED: symmetry with ibrav=0, use correct ibrav instead

     Parallelization info
     --------------------
     sticks:   dense  smooth     PW     G-vecs:    dense   smooth      PW
     Min         315     126     37                10367     2609     425
     Max         316     127     39                10370     2610     427
     Sum        1893     757    225                62213    15659    2553



     bravais-lattice index     =            0
     lattice parameter (alat)  =       5.4613  a.u.
     unit-cell volume          =     162.8884 (a.u.)^3
     number of atoms/cell      =            2
     number of atomic types    =            2
     number of electrons       =        28.00
     number of Kohn-Sham states=           18
     kinetic-energy cutoff     =      80.0000  Ry
     charge density cutoff     =     800.0000  Ry
     convergence threshold     =      1.0E-06
     mixing beta               =       0.7000
     number of iterations used =            8  plain     mixing
     Exchange-correlation      = PBE ( 1  4  3  4 0 0)

     celldm(1)=   5.461309  celldm(2)=   0.000000  celldm(3)=   0.000000
     celldm(4)=   0.000000  celldm(5)=   0.000000  celldm(6)=   0.000000

     crystal axes: (cart. coord. in units of alat)
               a(1) = (   1.000000   0.000000   0.000000 )  
               a(2) = (   0.000000   1.000000   0.000000 )  
               a(3) = (   0.000000   0.000000   1.000000 )  

     reciprocal axes: (cart. coord. in units 2 pi/alat)
               b(1) = (  1.000000  0.000000  0.000000 )  
               b(2) = (  0.000000  1.000000  0.000000 )  
               b(3) = (  0.000000  0.000000  1.000000 )  


     PseudoPot. # 1 for Cr read from file:
     /home/cristian/Escritorio/Proyecto_Grafeno/pseudopotenciales/Cr.pbe-spn-rrkjus_psl.1.0.0.UPF
     MD5 check sum: 793d051e4f89dd1e3290b85340a92c0a
     Pseudo is Ultrasoft + core correction, Zval = 14.0
     Generated using "atomic" code by A. Dal Corso v.6.2.2
     Using radial grid of 1183 points,  6 beta functions with: 
                l(1) =   0
                l(2) =   0
                l(3) =   1
                l(4) =   1
                l(5) =   2
                l(6) =   2
     Q(r) pseudized with 0 coefficients 


     PseudoPot. # 2 for Cr read from file:
     /home/cristian/Escritorio/Proyecto_Grafeno/pseudopotenciales/Cr.pbe-spn-rrkjus_psl.1.0.0.UPF
     MD5 check sum: 793d051e4f89dd1e3290b85340a92c0a
     Pseudo is Ultrasoft + core correction, Zval = 14.0
     Generated using "atomic" code by A. Dal Corso v.6.2.2
     Using radial grid of 1183 points,  6 beta functions with: 
                l(1) =   0
                l(2) =   0
                l(3) =   1
                l(4) =   1
                l(5) =   2
                l(6) =   2
     Q(r) pseudized with 0 coefficients 


     atomic species   valence    mass     pseudopotential
        Cr1           14.00    51.99610     Cr( 1.00)
        Cr2           14.00    51.99610     Cr( 1.00)

     Starting magnetic structure 
     atomic species   magnetization
        Cr1          0.100
        Cr2         -0.100

     48 Sym. Ops., with inversion, found



   Cartesian axes

     site n.     atom                  positions (alat units)
         1           Cr1 tau(   1) = (   0.0000000   0.0000000   0.0000000  )
         2           Cr2 tau(   2) = (   0.5000000   0.5000000   0.5000000  )

     number of k points=    20  Methfessel-Paxton smearing, width (Ry)=  0.0300
                       cart. coord. in units 2pi/alat
        k(    1) = (   0.0625000   0.0625000   0.0625000), wk =   0.0156250
        k(    2) = (   0.0625000   0.0625000   0.1875000), wk =   0.0468750
        k(    3) = (   0.0625000   0.0625000   0.3125000), wk =   0.0468750
        k(    4) = (   0.0625000   0.0625000   0.4375000), wk =   0.0468750
        k(    5) = (   0.0625000   0.1875000   0.1875000), wk =   0.0468750
        k(    6) = (   0.0625000   0.1875000   0.3125000), wk =   0.0937500
        k(    7) = (   0.0625000   0.1875000   0.4375000), wk =   0.0937500
        k(    8) = (   0.0625000   0.3125000   0.3125000), wk =   0.0468750
        k(    9) = (   0.0625000   0.3125000   0.4375000), wk =   0.0937500
        k(   10) = (   0.0625000   0.4375000   0.4375000), wk =   0.0468750
        k(   11) = (   0.1875000   0.1875000   0.1875000), wk =   0.0156250
        k(   12) = (   0.1875000   0.1875000   0.3125000), wk =   0.0468750
        k(   13) = (   0.1875000   0.1875000   0.4375000), wk =   0.0468750
        k(   14) = (   0.1875000   0.3125000   0.3125000), wk =   0.0468750
        k(   15) = (   0.1875000   0.3125000   0.4375000), wk =   0.0937500
        k(   16) = (   0.1875000   0.4375000   0.4375000), wk =   0.0468750
        k(   17) = (   0.3125000   0.3125000   0.3125000), wk =   0.0156250
        k(   18) = (   0.3125000   0.3125000   0.4375000), wk =   0.0468750
        k(   19) = (   0.3125000   0.4375000   0.4375000), wk =   0.0468750
        k(   20) = (   0.4375000   0.4375000   0.4375000), wk =   0.0156250

     Dense  grid:    62213 G-vectors     FFT dimensions: (  50,  50,  50)

     Smooth grid:    15659 G-vectors     FFT dimensions: (  32,  32,  32)

     Estimated max dynamical RAM per process >      47.70 MB

     Estimated total dynamical RAM >     286.20 MB
     Generating pointlists ...
     new r_m :   0.3572 (alat units)  1.9510 (a.u.) for type    1
     new r_m :   0.3572 (alat units)  1.9510 (a.u.) for type    2

     Check: negative core charge=   -0.000002

     Initial potential from superposition of free atoms

     starting charge   27.99845, renormalised to   28.00000
     Starting wfcs are   20 randomized atomic wfcs

     total cpu time spent up to now is        2.1 secs

     Self-consistent Calculation

     iteration #  1     ecut=    80.00 Ry     beta= 0.70
     Davidson diagonalization with overlap
     ethr =  1.00E-02,  avg # of iterations =  2.5

     Threshold (ethr) on eigenvalues was too large:
     Diagonalizing with lowered threshold

     Davidson diagonalization with overlap
     ethr =  6.42E-04,  avg # of iterations =  2.2

     total cpu time spent up to now is        3.9 secs

     total energy              =    -349.90228924 Ry
     Harris-Foulkes estimate   =    -350.02825295 Ry
     estimated scf accuracy    <       0.19281036 Ry

     total magnetization       =    -0.00 Bohr mag/cell
     absolute magnetization    =     2.12 Bohr mag/cell

     iteration #  2     ecut=    80.00 Ry     beta= 0.70
     Davidson diagonalization with overlap
     ethr =  6.89E-04,  avg # of iterations =  3.0

     total cpu time spent up to now is        5.1 secs

     total energy              =    -349.93632364 Ry
     Harris-Foulkes estimate   =    -350.05505853 Ry
     estimated scf accuracy    <       0.25505667 Ry

     total magnetization       =    -0.00 Bohr mag/cell
     absolute magnetization    =     2.64 Bohr mag/cell

     iteration #  3     ecut=    80.00 Ry     beta= 0.70
     Davidson diagonalization with overlap
     ethr =  6.89E-04,  avg # of iterations =  3.0

     total cpu time spent up to now is        6.1 secs

     total energy              =    -349.98839688 Ry
     Harris-Foulkes estimate   =    -349.98812846 Ry
     estimated scf accuracy    <       0.00130472 Ry

     total magnetization       =    -0.00 Bohr mag/cell
     absolute magnetization    =     2.41 Bohr mag/cell

     iteration #  4     ecut=    80.00 Ry     beta= 0.70
     Davidson diagonalization with overlap
     ethr =  4.66E-06,  avg # of iterations =  4.0

     total cpu time spent up to now is        7.4 secs

     total energy              =    -349.98775792 Ry
     Harris-Foulkes estimate   =    -349.99037316 Ry
     estimated scf accuracy    <       0.02713692 Ry

     total magnetization       =     0.01 Bohr mag/cell
     absolute magnetization    =     2.47 Bohr mag/cell

     iteration #  5     ecut=    80.00 Ry     beta= 0.70
     Davidson diagonalization with overlap
     ethr =  4.66E-06,  avg # of iterations =  3.6

     total cpu time spent up to now is        8.4 secs

     total energy              =    -349.98912858 Ry
     Harris-Foulkes estimate   =    -349.98908433 Ry
     estimated scf accuracy    <       0.00007526 Ry

     total magnetization       =    -0.00 Bohr mag/cell
     absolute magnetization    =     2.49 Bohr mag/cell

     iteration #  6     ecut=    80.00 Ry     beta= 0.70
     Davidson diagonalization with overlap
     ethr =  2.69E-07,  avg # of iterations =  3.6

     total cpu time spent up to now is        9.4 secs

     total energy              =    -349.98916578 Ry
     Harris-Foulkes estimate   =    -349.98915419 Ry
     estimated scf accuracy    <       0.00003857 Ry

     total magnetization       =    -0.00 Bohr mag/cell
     absolute magnetization    =     2.53 Bohr mag/cell

     iteration #  7     ecut=    80.00 Ry     beta= 0.70
     Davidson diagonalization with overlap
     ethr =  1.38E-07,  avg # of iterations =  4.1

     total cpu time spent up to now is       10.5 secs

     total energy              =    -349.98907781 Ry
     Harris-Foulkes estimate   =    -349.98925832 Ry
     estimated scf accuracy    <       0.00001890 Ry

     total magnetization       =     0.00 Bohr mag/cell
     absolute magnetization    =     2.62 Bohr mag/cell

     iteration #  8     ecut=    80.00 Ry     beta= 0.70
     Davidson diagonalization with overlap
     ethr =  6.75E-08,  avg # of iterations =  4.7

     total cpu time spent up to now is       11.7 secs

     total energy              =    -349.98933673 Ry
     Harris-Foulkes estimate   =    -349.98933667 Ry
     estimated scf accuracy    <       0.00000155 Ry

     total magnetization       =    -0.00 Bohr mag/cell
     absolute magnetization    =     2.77 Bohr mag/cell

     iteration #  9     ecut=    80.00 Ry     beta= 0.70
     Davidson diagonalization with overlap
     ethr =  5.53E-09,  avg # of iterations =  3.2

     Magnetic moment per site:
     atom:    1    charge:   12.2623    magn:    1.2974    constr:    0.0000
     atom:    2    charge:   12.2618    magn:   -1.2974    constr:    0.0000

     total cpu time spent up to now is       12.6 secs

     End of self-consistent calculation

 ------ SPIN UP ------------


          k = 0.0625 0.0625 0.0625 (  1956 PWs)   bands (ev):

   -53.7185 -52.3019 -25.0501 -25.0501 -25.0359 -23.5195 -23.5029 -23.5029
    11.0786  14.6595  14.6595  17.6408  17.6408  17.8733  19.8026  19.8026
    20.7128  21.1271

          k = 0.0625 0.0625 0.1875 (  1968 PWs)   bands (ev):

   -53.7112 -52.3023 -25.0785 -25.0336 -25.0233 -23.5685 -23.5149 -23.5132
    11.7113  14.9742  14.9784  17.5091  17.5697  18.1160  19.4228  19.9761
    19.9851  20.4472

          k = 0.0625 0.0625 0.3125 (  1968 PWs)   bands (ev):

   -53.7007 -52.3031 -25.1146 -25.0097 -25.0092 -23.6377 -23.5322 -23.5271
    12.8457  15.3296  15.5598  17.4625  17.4797  18.2823  18.7791  19.4370
    19.6384  20.2425

          k = 0.0625 0.0625 0.4375 (  1967 PWs)   bands (ev):

   -53.6933 -52.3036 -25.1394 -25.0000 -24.9924 -23.6860 -23.5448 -23.5372
    14.1615  15.1715  16.2764  17.2201  17.5922  18.1512  18.2229  19.1088
    19.4848  20.3359

          k = 0.0625 0.1875 0.1875 (  1954 PWs)   bands (ev):

   -53.7048 -52.3016 -25.0965 -25.0436 -25.0166 -23.5925 -23.5263 -23.5223
    12.2922  15.1741  15.3563  17.2172  17.3957  18.2224  19.4867  19.5592
    19.8832  20.0422

          k = 0.0625 0.1875 0.3125 (  1965 PWs)   bands (ev):

   -53.6958 -52.3006 -25.1330 -25.0526 -25.0026 -23.6290 -23.5436 -23.5303
    13.2942  15.3833  15.9209  17.0268  17.2573  17.8291  19.2019  19.4765
    19.7977  20.1273

          k = 0.0625 0.1875 0.4375 (  1973 PWs)   bands (ev):

   -53.6895 -52.2999 -25.1599 -25.0613 -24.9899 -23.6541 -23.5569 -23.5344
    14.3785  15.1635  16.4527  16.9210  17.2831  17.4689  18.9182  19.2860
    20.1207  20.6577

          k = 0.0625 0.3125 0.3125 (  1968 PWs)   bands (ev):

   -53.6889 -52.2971 -25.1637 -25.1099 -24.9915 -23.6199 -23.5571 -23.5341
    13.9331  15.1788  16.6471  16.7184  17.2037  17.3917  19.2841  19.6568
    20.0110  20.4451

          k = 0.0625 0.3125 0.4375 (  1977 PWs)   bands (ev):

   -53.6840 -52.2946 -25.1898 -25.1463 -24.9832 -23.6139 -23.5694 -23.5336
    14.4448  14.8422  16.5584  16.7553  17.3648  17.8675  19.4210  19.6393
    20.2773  21.1110

          k = 0.0625 0.4375 0.4375 (  1980 PWs)   bands (ev):

   -53.6801 -52.2909 -25.2121 -25.2034 -24.9783 -23.5881 -23.5774 -23.5329
    14.3846  14.5713  16.3209  16.3880  18.5104  18.8803  19.6626  19.9357
    19.9831  20.9924

          k = 0.1875 0.1875 0.1875 (  1953 PWs)   bands (ev):

   -53.6992 -52.3000 -25.0767 -25.0767 -25.0346 -23.5912 -23.5416 -23.5416
    12.8536  15.5497  15.5497  17.0520  17.0520  17.6591  19.7565  19.7565
    19.7611  20.5496

          k = 0.1875 0.1875 0.3125 (  1970 PWs)   bands (ev):

   -53.6913 -52.2978 -25.1284 -25.0553 -25.0479 -23.6135 -23.5639 -23.5442
    13.7914  15.8558  15.8792  16.8058  16.8973  17.1694  19.5292  19.8542
    20.0136  20.4329

          k = 0.1875 0.1875 0.4375 (  1966 PWs)   bands (ev):

   -53.6857 -52.2962 -25.1649 -25.0699 -25.0269 -23.6375 -23.5803 -23.5372
    14.7387  15.4586  16.2390  16.5426  17.0123  17.3636  19.3062  19.4730
    19.9883  20.7150

          k = 0.1875 0.3125 0.3125 (  1967 PWs)   bands (ev):

   -53.6849 -52.2937 -25.1388 -25.1124 -25.0397 -23.6106 -23.5776 -23.5612
    14.4882  15.6425  16.4630  16.6245  16.7012  16.8772  19.7036  19.8405
    19.9802  20.6650

          k = 0.1875 0.3125 0.4375 (  1968 PWs)   bands (ev):

   -53.6803 -52.2909 -25.1743 -25.1312 -25.0264 -23.6194 -23.5975 -23.5528
    14.9288  15.3170  16.3235  16.4739  17.0487  17.4888  19.6039  19.8089
    19.9550  20.7185

          k = 0.1875 0.4375 0.4375 (  1978 PWs)   bands (ev):

   -53.6765 -52.2872 -25.1835 -25.1797 -25.0175 -23.6112 -23.6020 -23.5674
    14.8312  15.1105  16.2087  16.2468  17.9812  18.0157  19.6693  19.7358
    20.1202  20.7305

          k = 0.3125 0.3125 0.3125 (  1956 PWs)   bands (ev):

   -53.6792 -52.2890 -25.1204 -25.1024 -25.1024 -23.6079 -23.6079 -23.5892
    15.2874  16.0609  16.2406  16.2406  16.6261  16.6261  19.8370  19.8370
    20.3003  20.3003

          k = 0.3125 0.3125 0.4375 (  1965 PWs)   bands (ev):

   -53.6751 -52.2856 -25.1554 -25.1172 -25.0757 -23.6303 -23.6287 -23.5863
    15.4467  15.8847  16.0956  16.5040  16.5494  17.2197  19.6983  19.7587
    20.2080  20.6274

          k = 0.3125 0.4375 0.4375 (  1966 PWs)   bands (ev):

   -53.6715 -52.2819 -25.1453 -25.1414 -25.0724 -23.6446 -23.6384 -23.6161
    15.4637  15.9263  16.0754  16.1816  17.2241  17.3039  19.6406  19.6894
    20.4353  20.7060

          k = 0.4375 0.4375 0.4375 (  1944 PWs)   bands (ev):

   -53.6679 -52.2781 -25.1209 -25.1103 -25.1103 -23.6655 -23.6655 -23.6538
    15.8387  16.0103  16.0103  16.8200  16.8677  16.8677  19.6226  19.6226
    20.7139  20.7139

 ------ SPIN DOWN ----------


          k = 0.0625 0.0625 0.0625 (  1956 PWs)   bands (ev):

   -53.7182 -52.3022 -25.0498 -25.0498 -25.0356 -23.5197 -23.5032 -23.5032
    11.0787  14.6596  14.6596  17.6410  17.6410  17.8734  19.8025  19.8025
    20.7127  21.1271

          k = 0.0625 0.0625 0.1875 (  1968 PWs)   bands (ev):

   -53.7109 -52.3026 -25.0782 -25.0333 -25.0230 -23.5688 -23.5151 -23.5135
    11.7113  14.9743  14.9784  17.5092  17.5699  18.1161  19.4228  19.9761
    19.9850  20.4471

          k = 0.0625 0.0625 0.3125 (  1968 PWs)   bands (ev):

   -53.7004 -52.3034 -25.1143 -25.0094 -25.0089 -23.6380 -23.5325 -23.5274
    12.8457  15.3297  15.5599  17.4626  17.4798  18.2825  18.7790  19.4369
    19.6383  20.2425

          k = 0.0625 0.0625 0.4375 (  1967 PWs)   bands (ev):

   -53.6930 -52.3039 -25.1391 -24.9997 -24.9920 -23.6862 -23.5451 -23.5375
    14.1615  15.1715  16.2766  17.2202  17.5924  18.1513  18.2229  19.1086
    19.4847  20.3358

          k = 0.0625 0.1875 0.1875 (  1954 PWs)   bands (ev):

   -53.7045 -52.3019 -25.0962 -25.0433 -25.0164 -23.5928 -23.5265 -23.5226
    12.2922  15.1741  15.3564  17.2173  17.3958  18.2226  19.4866  19.5591
    19.8832  20.0421

          k = 0.0625 0.1875 0.3125 (  1965 PWs)   bands (ev):

   -53.6955 -52.3009 -25.1327 -25.0523 -25.0023 -23.6293 -23.5439 -23.5305
    13.2943  15.3833  15.9209  17.0269  17.2575  17.8293  19.2019  19.4764
    19.7976  20.1273

          k = 0.0625 0.1875 0.4375 (  1973 PWs)   bands (ev):

   -53.6892 -52.3002 -25.1596 -25.0610 -24.9896 -23.6544 -23.5572 -23.5347
    14.3785  15.1635  16.4528  16.9210  17.2832  17.4690  18.9182  19.2860
    20.1207  20.6577

          k = 0.0625 0.3125 0.3125 (  1968 PWs)   bands (ev):

   -53.6886 -52.2974 -25.1634 -25.1096 -24.9912 -23.6202 -23.5573 -23.5344
    13.9332  15.1788  16.6472  16.7185  17.2038  17.3918  19.2840  19.6567
    20.0110  20.4450

          k = 0.0625 0.3125 0.4375 (  1977 PWs)   bands (ev):

   -53.6837 -52.2949 -25.1896 -25.1461 -24.9828 -23.6142 -23.5696 -23.5339
    14.4448  14.8423  16.5585  16.7554  17.3649  17.8675  19.4210  19.6392
    20.2773  21.1109

          k = 0.0625 0.4375 0.4375 (  1980 PWs)   bands (ev):

   -53.6798 -52.2912 -25.2118 -25.2032 -24.9780 -23.5884 -23.5777 -23.5331
    14.3846  14.5713  16.3209  16.3881  18.5105  18.8803  19.6626  19.9356
    19.9832  20.9923

          k = 0.1875 0.1875 0.1875 (  1953 PWs)   bands (ev):

   -53.6989 -52.3003 -25.0764 -25.0764 -25.0343 -23.5915 -23.5418 -23.5418
    12.8536  15.5497  15.5497  17.0521  17.0521  17.6593  19.7564  19.7564
    19.7610  20.5496

          k = 0.1875 0.1875 0.3125 (  1970 PWs)   bands (ev):

   -53.6910 -52.2980 -25.1281 -25.0550 -25.0476 -23.6138 -23.5642 -23.5445
    13.7914  15.8558  15.8793  16.8059  16.8974  17.1695  19.5291  19.8542
    20.0136  20.4328

          k = 0.1875 0.1875 0.4375 (  1966 PWs)   bands (ev):

   -53.6854 -52.2965 -25.1646 -25.0696 -25.0266 -23.6378 -23.5806 -23.5375
    14.7387  15.4587  16.2391  16.5427  17.0124  17.3636  19.3061  19.4729
    19.9885  20.7149

          k = 0.1875 0.3125 0.3125 (  1967 PWs)   bands (ev):

   -53.6846 -52.2940 -25.1385 -25.1121 -25.0394 -23.6109 -23.5779 -23.5615
    14.4882  15.6426  16.4631  16.6246  16.7013  16.8773  19.7036  19.8404
    19.9802  20.6650

          k = 0.1875 0.3125 0.4375 (  1968 PWs)   bands (ev):

   -53.6800 -52.2912 -25.1740 -25.1309 -25.0261 -23.6196 -23.5978 -23.5531
    14.9289  15.3171  16.3236  16.4740  17.0489  17.4888  19.6040  19.8088
    19.9551  20.7183

          k = 0.1875 0.4375 0.4375 (  1978 PWs)   bands (ev):

   -53.6762 -52.2875 -25.1832 -25.1794 -25.0172 -23.6115 -23.6022 -23.5677
    14.8312  15.1105  16.2088  16.2469  17.9813  18.0157  19.6694  19.7360
    20.1201  20.7302

          k = 0.3125 0.3125 0.3125 (  1956 PWs)   bands (ev):

   -53.6789 -52.2893 -25.1201 -25.1021 -25.1021 -23.6082 -23.6082 -23.5894
    15.2875  16.0609  16.2408  16.2408  16.6261  16.6261  19.8371  19.8371
    20.3001  20.3001

          k = 0.3125 0.3125 0.4375 (  1965 PWs)   bands (ev):

   -53.6748 -52.2859 -25.1551 -25.1169 -25.0754 -23.6306 -23.6289 -23.5865
    15.4468  15.8847  16.0957  16.5041  16.5494  17.2196  19.6984  19.7588
    20.2078  20.6271

          k = 0.3125 0.4375 0.4375 (  1966 PWs)   bands (ev):

   -53.6712 -52.2822 -25.1450 -25.1411 -25.0721 -23.6449 -23.6387 -23.6164
    15.4638  15.9263  16.0756  16.1817  17.2240  17.3038  19.6408  19.6896
    20.4351  20.7057

          k = 0.4375 0.4375 0.4375 (  1944 PWs)   bands (ev):

   -53.6676 -52.2784 -25.1206 -25.1100 -25.1100 -23.6658 -23.6658 -23.6540
    15.8388  16.0104  16.0104  16.8199  16.8676  16.8676  19.6228  19.6228
    20.7136  20.7136

     the Fermi energy is    18.6215 ev

!    total energy              =    -349.98933767 Ry
     Harris-Foulkes estimate   =    -349.98933769 Ry
     estimated scf accuracy    <       0.00000012 Ry

     The total energy is the sum of the following terms:

     one-electron contribution =    -118.85326338 Ry
     hartree contribution      =      74.66490305 Ry
     xc contribution           =     -44.58758220 Ry
     ewald contribution        =    -261.21569692 Ry
     smearing contrib. (-TS)   =       0.00230177 Ry

     total magnetization       =     0.00 Bohr mag/cell
     absolute magnetization    =     2.78 Bohr mag/cell

     convergence has been achieved in   9 iterations

     Writing output data file cr-2.89.save/

     init_run     :      0.70s CPU      0.74s WALL (       1 calls)
     electrons    :     10.30s CPU     10.46s WALL (       1 calls)

     Called by init_run:
     wfcinit      :      0.23s CPU      0.24s WALL (       1 calls)
     potinit      :      0.08s CPU      0.08s WALL (       1 calls)
     hinit0       :      0.29s CPU      0.29s WALL (       1 calls)

     Called by electrons:
     c_bands      :      7.48s CPU      7.59s WALL (      10 calls)
     sum_band     :      1.87s CPU      1.91s WALL (      10 calls)
     v_of_rho     :      0.37s CPU      0.38s WALL (      10 calls)
     newd         :      0.58s CPU      0.62s WALL (      10 calls)
     mix_rho      :      0.04s CPU      0.04s WALL (      10 calls)

     Called by c_bands:
     init_us_2    :      0.11s CPU      0.11s WALL (     840 calls)
     cegterg      :      7.06s CPU      7.17s WALL (     400 calls)

     Called by sum_band:
     sum_band:bec :      0.01s CPU      0.01s WALL (     400 calls)
     addusdens    :      0.97s CPU      0.97s WALL (      10 calls)

     Called by *egterg:
     h_psi        :      3.84s CPU      3.91s WALL (    1797 calls)
     s_psi        :      0.40s CPU      0.41s WALL (    1797 calls)
     g_psi        :      0.04s CPU      0.04s WALL (    1357 calls)
     cdiaghg      :      1.04s CPU      1.06s WALL (    1717 calls)

     Called by h_psi:
     h_psi:pot    :      3.83s CPU      3.89s WALL (    1797 calls)
     h_psi:calbec :      0.56s CPU      0.57s WALL (    1797 calls)
     vloc_psi     :      2.86s CPU      2.90s WALL (    1797 calls)
     add_vuspsi   :      0.40s CPU      0.41s WALL (    1797 calls)

     General routines
     calbec       :      0.75s CPU      0.77s WALL (    2197 calls)
     fft          :      0.17s CPU      0.18s WALL (     246 calls)
     ffts         :      0.01s CPU      0.01s WALL (      40 calls)
     fftw         :      2.95s CPU      3.00s WALL (   47666 calls)
     interpolate  :      0.02s CPU      0.02s WALL (      20 calls)

     Parallel routines
     fft_scatt_xy :      0.36s CPU      0.37s WALL (   47952 calls)
     fft_scatt_yz :      1.67s CPU      1.70s WALL (   47952 calls)

     PWSCF        :     12.45s CPU     12.72s WALL


   This run was terminated on:  12:48:20  10Mar2022            

=------------------------------------------------------------------------------=
   JOB DONE.
=------------------------------------------------------------------------------=
