
     Program PWSCF v.6.4.1 starts on 10Mar2022 at 12:50:34 

     This program is part of the open-source Quantum ESPRESSO suite
     for quantum simulation of materials; please cite
         "P. Giannozzi et al., J. Phys.:Condens. Matter 21 395502 (2009);
         "P. Giannozzi et al., J. Phys.:Condens. Matter 29 465901 (2017);
          URL http://www.quantum-espresso.org", 
     in publications or presentations arising from this work. More details at
     http://www.quantum-espresso.org/quote

     Parallel version (MPI), running on     6 processors

     MPI processes distributed on     1 nodes
     R & G space division:  proc/nbgrp/npool/nimage =       6
     Reading input from cr-3.07.in

     Current dimensions of program PWSCF are:
     Max number of different atomic species (ntypx) = 10
     Max number of k-points (npk) =  40000
     Max angular momentum in pseudopotentials (lmaxx) =  3
               file Cr.pbe-spn-rrkjus_psl.1.0.0.UPF: wavefunction(s)  3P renormalized
               file Cr.pbe-spn-rrkjus_psl.1.0.0.UPF: wavefunction(s)  3P renormalized

     Subspace diagonalization in iterative solution of the eigenvalue problem:
     a serial algorithm will be used

     Message from routine setup:
     DEPRECATED: symmetry with ibrav=0, use correct ibrav instead

     Parallelization info
     --------------------
     sticks:   dense  smooth     PW     G-vecs:    dense   smooth      PW
     Min         357     142     42                12441     3142     511
     Max         358     144     43                12444     3143     512
     Sum        2145     861    253                74653    18853    3071



     bravais-lattice index     =            0
     lattice parameter (alat)  =       5.8015  a.u.
     unit-cell volume          =     195.2593 (a.u.)^3
     number of atoms/cell      =            2
     number of atomic types    =            2
     number of electrons       =        28.00
     number of Kohn-Sham states=           18
     kinetic-energy cutoff     =      80.0000  Ry
     charge density cutoff     =     800.0000  Ry
     convergence threshold     =      1.0E-06
     mixing beta               =       0.7000
     number of iterations used =            8  plain     mixing
     Exchange-correlation      = PBE ( 1  4  3  4 0 0)

     celldm(1)=   5.801459  celldm(2)=   0.000000  celldm(3)=   0.000000
     celldm(4)=   0.000000  celldm(5)=   0.000000  celldm(6)=   0.000000

     crystal axes: (cart. coord. in units of alat)
               a(1) = (   1.000000   0.000000   0.000000 )  
               a(2) = (   0.000000   1.000000   0.000000 )  
               a(3) = (   0.000000   0.000000   1.000000 )  

     reciprocal axes: (cart. coord. in units 2 pi/alat)
               b(1) = (  1.000000  0.000000  0.000000 )  
               b(2) = (  0.000000  1.000000  0.000000 )  
               b(3) = (  0.000000  0.000000  1.000000 )  


     PseudoPot. # 1 for Cr read from file:
     /home/cristian/Escritorio/Proyecto_Grafeno/pseudopotenciales/Cr.pbe-spn-rrkjus_psl.1.0.0.UPF
     MD5 check sum: 793d051e4f89dd1e3290b85340a92c0a
     Pseudo is Ultrasoft + core correction, Zval = 14.0
     Generated using "atomic" code by A. Dal Corso v.6.2.2
     Using radial grid of 1183 points,  6 beta functions with: 
                l(1) =   0
                l(2) =   0
                l(3) =   1
                l(4) =   1
                l(5) =   2
                l(6) =   2
     Q(r) pseudized with 0 coefficients 


     PseudoPot. # 2 for Cr read from file:
     /home/cristian/Escritorio/Proyecto_Grafeno/pseudopotenciales/Cr.pbe-spn-rrkjus_psl.1.0.0.UPF
     MD5 check sum: 793d051e4f89dd1e3290b85340a92c0a
     Pseudo is Ultrasoft + core correction, Zval = 14.0
     Generated using "atomic" code by A. Dal Corso v.6.2.2
     Using radial grid of 1183 points,  6 beta functions with: 
                l(1) =   0
                l(2) =   0
                l(3) =   1
                l(4) =   1
                l(5) =   2
                l(6) =   2
     Q(r) pseudized with 0 coefficients 


     atomic species   valence    mass     pseudopotential
        Cr1           14.00    51.99610     Cr( 1.00)
        Cr2           14.00    51.99610     Cr( 1.00)

     Starting magnetic structure 
     atomic species   magnetization
        Cr1          0.100
        Cr2         -0.100

     48 Sym. Ops., with inversion, found



   Cartesian axes

     site n.     atom                  positions (alat units)
         1           Cr1 tau(   1) = (   0.0000000   0.0000000   0.0000000  )
         2           Cr2 tau(   2) = (   0.5000000   0.5000000   0.5000000  )

     number of k points=    20  Methfessel-Paxton smearing, width (Ry)=  0.0300
                       cart. coord. in units 2pi/alat
        k(    1) = (   0.0625000   0.0625000   0.0625000), wk =   0.0156250
        k(    2) = (   0.0625000   0.0625000   0.1875000), wk =   0.0468750
        k(    3) = (   0.0625000   0.0625000   0.3125000), wk =   0.0468750
        k(    4) = (   0.0625000   0.0625000   0.4375000), wk =   0.0468750
        k(    5) = (   0.0625000   0.1875000   0.1875000), wk =   0.0468750
        k(    6) = (   0.0625000   0.1875000   0.3125000), wk =   0.0937500
        k(    7) = (   0.0625000   0.1875000   0.4375000), wk =   0.0937500
        k(    8) = (   0.0625000   0.3125000   0.3125000), wk =   0.0468750
        k(    9) = (   0.0625000   0.3125000   0.4375000), wk =   0.0937500
        k(   10) = (   0.0625000   0.4375000   0.4375000), wk =   0.0468750
        k(   11) = (   0.1875000   0.1875000   0.1875000), wk =   0.0156250
        k(   12) = (   0.1875000   0.1875000   0.3125000), wk =   0.0468750
        k(   13) = (   0.1875000   0.1875000   0.4375000), wk =   0.0468750
        k(   14) = (   0.1875000   0.3125000   0.3125000), wk =   0.0468750
        k(   15) = (   0.1875000   0.3125000   0.4375000), wk =   0.0937500
        k(   16) = (   0.1875000   0.4375000   0.4375000), wk =   0.0468750
        k(   17) = (   0.3125000   0.3125000   0.3125000), wk =   0.0156250
        k(   18) = (   0.3125000   0.3125000   0.4375000), wk =   0.0468750
        k(   19) = (   0.3125000   0.4375000   0.4375000), wk =   0.0468750
        k(   20) = (   0.4375000   0.4375000   0.4375000), wk =   0.0156250

     Dense  grid:    74653 G-vectors     FFT dimensions: (  54,  54,  54)

     Smooth grid:    18853 G-vectors     FFT dimensions: (  36,  36,  36)

     Estimated max dynamical RAM per process >      56.61 MB

     Estimated total dynamical RAM >     339.67 MB
     Generating pointlists ...
     new r_m :   0.3572 (alat units)  2.0725 (a.u.) for type    1
     new r_m :   0.3572 (alat units)  2.0725 (a.u.) for type    2

     Check: negative core charge=   -0.000001

     Initial potential from superposition of free atoms

     starting charge   27.99845, renormalised to   28.00000
     Starting wfcs are   20 randomized atomic wfcs

     total cpu time spent up to now is        2.4 secs

     Self-consistent Calculation

     iteration #  1     ecut=    80.00 Ry     beta= 0.70
     Davidson diagonalization with overlap
     ethr =  1.00E-02,  avg # of iterations =  2.5

     Threshold (ethr) on eigenvalues was too large:
     Diagonalizing with lowered threshold

     Davidson diagonalization with overlap
     ethr =  5.29E-04,  avg # of iterations =  2.5

     total cpu time spent up to now is        5.2 secs

     total energy              =    -349.86828327 Ry
     Harris-Foulkes estimate   =    -349.97781643 Ry
     estimated scf accuracy    <       0.16653592 Ry

     total magnetization       =    -0.00 Bohr mag/cell
     absolute magnetization    =     2.65 Bohr mag/cell

     iteration #  2     ecut=    80.00 Ry     beta= 0.70
     Davidson diagonalization with overlap
     ethr =  5.95E-04,  avg # of iterations =  3.2

     total cpu time spent up to now is        7.2 secs

     total energy              =    -349.88900086 Ry
     Harris-Foulkes estimate   =    -350.02711640 Ry
     estimated scf accuracy    <       0.35227227 Ry

     total magnetization       =    -0.00 Bohr mag/cell
     absolute magnetization    =     3.73 Bohr mag/cell

     iteration #  3     ecut=    80.00 Ry     beta= 0.70
     Davidson diagonalization with overlap
     ethr =  5.95E-04,  avg # of iterations =  3.0

     total cpu time spent up to now is        8.9 secs

     total energy              =    -349.95272499 Ry
     Harris-Foulkes estimate   =    -349.95078896 Ry
     estimated scf accuracy    <       0.00357548 Ry

     total magnetization       =    -0.00 Bohr mag/cell
     absolute magnetization    =     3.44 Bohr mag/cell

     iteration #  4     ecut=    80.00 Ry     beta= 0.70
     Davidson diagonalization with overlap
     ethr =  1.28E-05,  avg # of iterations =  4.0

     total cpu time spent up to now is       10.9 secs

     total energy              =    -349.94773737 Ry
     Harris-Foulkes estimate   =    -349.96475731 Ry
     estimated scf accuracy    <       0.19890309 Ry

     total magnetization       =    -0.01 Bohr mag/cell
     absolute magnetization    =     3.79 Bohr mag/cell

     iteration #  5     ecut=    80.00 Ry     beta= 0.70
     Davidson diagonalization with overlap
     ethr =  1.28E-05,  avg # of iterations =  4.0

     total cpu time spent up to now is       12.8 secs

     total energy              =    -349.95863024 Ry
     Harris-Foulkes estimate   =    -349.95707475 Ry
     estimated scf accuracy    <       0.00288929 Ry

     total magnetization       =     0.00 Bohr mag/cell
     absolute magnetization    =     3.97 Bohr mag/cell

     iteration #  6     ecut=    80.00 Ry     beta= 0.70
     Davidson diagonalization with overlap
     ethr =  1.03E-05,  avg # of iterations =  2.5

     total cpu time spent up to now is       14.1 secs

     total energy              =    -349.95351120 Ry
     Harris-Foulkes estimate   =    -349.95906315 Ry
     estimated scf accuracy    <       0.00216375 Ry

     total magnetization       =     0.00 Bohr mag/cell
     absolute magnetization    =     4.16 Bohr mag/cell

     iteration #  7     ecut=    80.00 Ry     beta= 0.70
     Davidson diagonalization with overlap
     ethr =  7.73E-06,  avg # of iterations =  4.4

     total cpu time spent up to now is       16.4 secs

     total energy              =    -349.96387558 Ry
     Harris-Foulkes estimate   =    -349.96404010 Ry
     estimated scf accuracy    <       0.00008214 Ry

     total magnetization       =     0.00 Bohr mag/cell
     absolute magnetization    =     5.06 Bohr mag/cell

     iteration #  8     ecut=    80.00 Ry     beta= 0.70
     Davidson diagonalization with overlap
     ethr =  2.93E-07,  avg # of iterations =  4.0

     total cpu time spent up to now is       18.2 secs

     total energy              =    -349.96388613 Ry
     Harris-Foulkes estimate   =    -349.96398841 Ry
     estimated scf accuracy    <       0.00002430 Ry

     total magnetization       =    -0.00 Bohr mag/cell
     absolute magnetization    =     4.97 Bohr mag/cell

     iteration #  9     ecut=    80.00 Ry     beta= 0.70
     Davidson diagonalization with overlap
     ethr =  8.68E-08,  avg # of iterations =  4.4

     total cpu time spent up to now is       20.2 secs

     total energy              =    -349.96404301 Ry
     Harris-Foulkes estimate   =    -349.96405189 Ry
     estimated scf accuracy    <       0.00000303 Ry

     total magnetization       =    -0.00 Bohr mag/cell
     absolute magnetization    =     5.09 Bohr mag/cell

     iteration # 10     ecut=    80.00 Ry     beta= 0.70
     Davidson diagonalization with overlap
     ethr =  1.08E-08,  avg # of iterations =  4.3

     Magnetic moment per site:
     atom:    1    charge:   12.4109    magn:    2.3636    constr:    0.0000
     atom:    2    charge:   12.4104    magn:   -2.3636    constr:    0.0000

     total cpu time spent up to now is       21.9 secs

     End of self-consistent calculation

 ------ SPIN UP ------------


          k = 0.0625 0.0625 0.0625 (  2376 PWs)   bands (ev):

   -57.5748 -55.1041 -28.9217 -28.9217 -28.9192 -26.3400 -26.3365 -26.3365
     8.1364  11.9478  11.9478  14.1317  14.1317  14.2598  16.3794  16.3794
    17.3444  17.6248

          k = 0.0625 0.0625 0.1875 (  2372 PWs)   bands (ev):

   -57.5728 -55.1031 -28.9385 -28.9177 -28.9165 -26.3622 -26.3384 -26.3379
     8.6850  12.1589  12.1828  14.0247  14.0438  14.3594  16.1136  16.4802
    16.8432  17.1034

          k = 0.0625 0.0625 0.3125 (  2357 PWs)   bands (ev):

   -57.5699 -55.1016 -28.9625 -28.9122 -28.9119 -26.3955 -26.3398 -26.3393
     9.6916  12.3417  12.5950  13.9147  13.9404  14.4387  15.6628  16.3637
    16.5179  16.6014

          k = 0.0625 0.0625 0.4375 (  2362 PWs)   bands (ev):

   -57.5679 -55.1005 -28.9796 -28.9091 -28.9079 -26.4191 -26.3413 -26.3398
    10.9054  12.0485  13.0094  13.7939  13.9512  14.4621  15.2496  16.0734
    16.1693  16.5301

          k = 0.0625 0.1875 0.1875 (  2360 PWs)   bands (ev):

   -57.5709 -55.1018 -28.9412 -28.9315 -28.9140 -26.3668 -26.3532 -26.3384
     9.2006  12.3142  12.4391  13.8443  13.8910  14.3378  16.1851  16.4234
    16.5106  16.8179

          k = 0.0625 0.1875 0.3125 (  2355 PWs)   bands (ev):

   -57.5682 -55.1001 -28.9639 -28.9329 -28.9096 -26.3915 -26.3564 -26.3387
    10.1235  12.4110  12.8311  13.6844  13.7764  14.1642  15.9784  16.1916
    16.5485  16.6860

          k = 0.0625 0.1875 0.4375 (  2358 PWs)   bands (ev):

   -57.5663 -55.0989 -28.9820 -28.9319 -28.9064 -26.4116 -26.3562 -26.3387
    11.1898  12.0789  13.1443  13.5680  13.9197  14.0252  15.7455  15.9042
    16.4560  17.0087

          k = 0.0625 0.3125 0.3125 (  2361 PWs)   bands (ev):

   -57.5658 -55.0980 -28.9690 -28.9593 -28.9061 -26.3898 -26.3764 -26.3374
    10.8112  12.2373  13.3672  13.4918  13.7558  13.8423  16.0572  16.2868
    16.4432  17.0445

          k = 0.0625 0.3125 0.4375 (  2360 PWs)   bands (ev):

   -57.5640 -55.0965 -28.9857 -28.9647 -28.9037 -26.4012 -26.3779 -26.3365
    11.4474  11.9062  13.3446  13.5103  13.7767  14.3856  15.8436  16.3137
    16.5173  17.4898

          k = 0.0625 0.4375 0.4375 (  2365 PWs)   bands (ev):

   -57.5625 -55.0948 -28.9888 -28.9872 -28.9017 -26.3948 -26.3925 -26.3349
    11.5091  11.7433  13.1945  13.2382  14.7389  15.0535  15.9895  16.0460
    16.6275  17.6211

          k = 0.1875 0.1875 0.1875 (  2346 PWs)   bands (ev):

   -57.5691 -55.1005 -28.9365 -28.9365 -28.9292 -26.3658 -26.3552 -26.3552
     9.6987  12.5825  12.5825  13.7003  13.7003  14.0244  16.3451  16.3451
    16.5799  17.1046

          k = 0.1875 0.1875 0.3125 (  2362 PWs)   bands (ev):

   -57.5665 -55.0985 -28.9625 -28.9317 -28.9298 -26.3879 -26.3581 -26.3554
    10.5708  12.7388  12.8198  13.4887  13.6063  13.7750  16.2129  16.3745
    16.5499  16.9649

          k = 0.1875 0.1875 0.4375 (  2362 PWs)   bands (ev):

   -57.5647 -55.0972 -28.9820 -28.9324 -28.9251 -26.4072 -26.3602 -26.3517
    11.5373  12.3008  13.0682  13.2802  13.6353  14.0822  15.9651  16.1081
    16.2207  17.3815

          k = 0.1875 0.3125 0.3125 (  2358 PWs)   bands (ev):

   -57.5642 -55.0964 -28.9633 -28.9585 -28.9269 -26.3865 -26.3794 -26.3562
    11.2700  12.5940  13.1838  13.3435  13.5124  13.5986  16.1983  16.3447
    16.5899  17.2338

          k = 0.1875 0.3125 0.4375 (  2362 PWs)   bands (ev):

   -57.5625 -55.0948 -28.9820 -28.9603 -28.9238 -26.4012 -26.3806 -26.3550
    11.8334  12.3116  13.0772  13.2681  13.6090  14.2605  15.8628  16.1737
    16.5901  17.4114

          k = 0.1875 0.4375 0.4375 (  2364 PWs)   bands (ev):

   -57.5609 -55.0932 -28.9824 -28.9816 -28.9209 -26.3977 -26.3963 -26.3554
    11.8285  12.2333  13.0354  13.0530  14.5227  14.6044  15.7213  15.9117
    16.8418  17.5301

          k = 0.3125 0.3125 0.3125 (  2365 PWs)   bands (ev):

   -57.5619 -55.0941 -28.9585 -28.9552 -28.9552 -26.3838 -26.3838 -26.3807
    11.9426  12.9620  12.9620  13.0582  13.5064  13.5064  16.1425  16.1425
    17.0339  17.0339

          k = 0.3125 0.3125 0.4375 (  2362 PWs)   bands (ev):

   -57.5603 -55.0925 -28.9769 -28.9567 -28.9495 -26.4014 -26.3869 -26.3785
    12.2338  12.8164  12.9555  13.0368  13.4905  14.1704  15.7561  15.9997
    16.9860  17.3943

          k = 0.3125 0.4375 0.4375 (  2358 PWs)   bands (ev):

   -57.5588 -55.0908 -28.9737 -28.9732 -28.9480 -26.4018 -26.4018 -26.3843
    12.2724  12.8043  12.8155  13.0976  14.1746  14.2055  15.5598  15.7924
    17.2120  17.5346

          k = 0.4375 0.4375 0.4375 (  2359 PWs)   bands (ev):

   -57.5573 -55.0892 -28.9685 -28.9667 -28.9667 -26.4058 -26.4058 -26.4036
    12.5483  12.6641  12.6641  13.9383  13.9989  13.9989  15.5139  15.5139
    17.5474  17.5474

 ------ SPIN DOWN ----------


          k = 0.0625 0.0625 0.0625 (  2376 PWs)   bands (ev):

   -57.5744 -55.1048 -28.9214 -28.9214 -28.9189 -26.3406 -26.3371 -26.3371
     8.1365  11.9479  11.9479  14.1319  14.1319  14.2600  16.3791  16.3791
    17.3441  17.6244

          k = 0.0625 0.0625 0.1875 (  2372 PWs)   bands (ev):

   -57.5724 -55.1038 -28.9382 -28.9174 -28.9162 -26.3629 -26.3391 -26.3385
     8.6852  12.1589  12.1829  14.0249  14.0441  14.3597  16.1133  16.4799
    16.8428  17.1030

          k = 0.0625 0.0625 0.3125 (  2357 PWs)   bands (ev):

   -57.5696 -55.1023 -28.9622 -28.9119 -28.9116 -26.3961 -26.3405 -26.3399
     9.6917  12.3418  12.5951  13.9150  13.9406  14.4390  15.6625  16.3635
    16.5176  16.6011

          k = 0.0625 0.0625 0.4375 (  2362 PWs)   bands (ev):

   -57.5675 -55.1012 -28.9793 -28.9088 -28.9076 -26.4197 -26.3419 -26.3404
    10.9056  12.0486  13.0096  13.7941  13.9514  14.4624  15.2492  16.0734
    16.1690  16.5299

          k = 0.0625 0.1875 0.1875 (  2360 PWs)   bands (ev):

   -57.5705 -55.1025 -28.9409 -28.9312 -28.9137 -26.3675 -26.3538 -26.3391
     9.2008  12.3142  12.4391  13.8445  13.8913  14.3381  16.1848  16.4231
    16.5103  16.8175

          k = 0.0625 0.1875 0.3125 (  2355 PWs)   bands (ev):

   -57.5678 -55.1008 -28.9636 -28.9326 -28.9093 -26.3922 -26.3570 -26.3393
    10.1236  12.4111  12.8312  13.6846  13.7766  14.1645  15.9781  16.1914
    16.5482  16.6857

          k = 0.0625 0.1875 0.4375 (  2358 PWs)   bands (ev):

   -57.5659 -55.0995 -28.9817 -28.9316 -28.9061 -26.4122 -26.3569 -26.3393
    11.1899  12.0791  13.1445  13.5682  13.9198  14.0253  15.7452  15.9041
    16.4558  17.0085

          k = 0.0625 0.3125 0.3125 (  2361 PWs)   bands (ev):

   -57.5654 -55.0987 -28.9687 -28.9590 -28.9058 -26.3905 -26.3770 -26.3381
    10.8113  12.2374  13.3674  13.4919  13.7560  13.8425  16.0570  16.2864
    16.4429  17.0442

          k = 0.0625 0.3125 0.4375 (  2360 PWs)   bands (ev):

   -57.5637 -55.0972 -28.9854 -28.9644 -28.9034 -26.4019 -26.3785 -26.3371
    11.4476  11.9064  13.3448  13.5105  13.7769  14.3857  15.8436  16.3134
    16.5172  17.4895

          k = 0.0625 0.4375 0.4375 (  2365 PWs)   bands (ev):

   -57.5621 -55.0955 -28.9885 -28.9869 -28.9014 -26.3954 -26.3931 -26.3355
    11.5092  11.7434  13.1947  13.2384  14.7390  15.0537  15.9894  16.0460
    16.6271  17.6206

          k = 0.1875 0.1875 0.1875 (  2346 PWs)   bands (ev):

   -57.5687 -55.1011 -28.9361 -28.9361 -28.9289 -26.3664 -26.3559 -26.3559
     9.6989  12.5826  12.5826  13.7005  13.7005  14.0247  16.3448  16.3448
    16.5796  17.1043

          k = 0.1875 0.1875 0.3125 (  2362 PWs)   bands (ev):

   -57.5662 -55.0992 -28.9622 -28.9314 -28.9295 -26.3885 -26.3588 -26.3560
    10.5710  12.7389  12.8199  13.4889  13.6065  13.7751  16.2126  16.3744
    16.5496  16.9646

          k = 0.1875 0.1875 0.4375 (  2362 PWs)   bands (ev):

   -57.5644 -55.0979 -28.9816 -28.9321 -28.9248 -26.4078 -26.3608 -26.3524
    11.5374  12.3009  13.0683  13.2804  13.6355  14.0823  15.9652  16.1077
    16.2204  17.3811

          k = 0.1875 0.3125 0.3125 (  2358 PWs)   bands (ev):

   -57.5638 -55.0971 -28.9630 -28.9582 -28.9266 -26.3871 -26.3801 -26.3569
    11.2702  12.5941  13.1840  13.3437  13.5125  13.5987  16.1981  16.3445
    16.5895  17.2334

          k = 0.1875 0.3125 0.4375 (  2362 PWs)   bands (ev):

   -57.5622 -55.0955 -28.9817 -28.9600 -28.9235 -26.4018 -26.3813 -26.3556
    11.8335  12.3117  13.0775  13.2683  13.6091  14.2606  15.8629  16.1736
    16.5897  17.4109

          k = 0.1875 0.4375 0.4375 (  2364 PWs)   bands (ev):

   -57.5606 -55.0939 -28.9821 -28.9813 -28.9206 -26.3983 -26.3970 -26.3560
    11.8287  12.2334  13.0356  13.0532  14.5228  14.6045  15.7214  15.9117
    16.8414  17.5295

          k = 0.3125 0.3125 0.3125 (  2365 PWs)   bands (ev):

   -57.5616 -55.0948 -28.9582 -28.9549 -28.9549 -26.3845 -26.3845 -26.3814
    11.9428  12.9622  12.9622  13.0583  13.5065  13.5065  16.1424  16.1424
    17.0335  17.0335

          k = 0.3125 0.3125 0.4375 (  2362 PWs)   bands (ev):

   -57.5600 -55.0932 -28.9766 -28.9564 -28.9492 -26.4021 -26.3876 -26.3791
    12.2340  12.8166  12.9556  13.0369  13.4906  14.1704  15.7562  15.9996
    16.9855  17.3938

          k = 0.3125 0.4375 0.4375 (  2358 PWs)   bands (ev):

   -57.5584 -55.0915 -28.9734 -28.9729 -28.9477 -26.4025 -26.4025 -26.3849
    12.2726  12.8045  12.8157  13.0977  14.1745  14.2054  15.5599  15.7925
    17.2115  17.5339

          k = 0.4375 0.4375 0.4375 (  2359 PWs)   bands (ev):

   -57.5569 -55.0899 -28.9682 -28.9664 -28.9664 -26.4064 -26.4064 -26.4042
    12.5486  12.6644  12.6644  13.9382  13.9988  13.9988  15.5141  15.5141
    17.5467  17.5467

     the Fermi energy is    15.2440 ev

!    total energy              =    -349.96405443 Ry
     Harris-Foulkes estimate   =    -349.96405439 Ry
     estimated scf accuracy    <       0.00000039 Ry

     The total energy is the sum of the following terms:

     one-electron contribution =    -142.68571597 Ry
     hartree contribution      =      83.15061766 Ry
     xc contribution           =     -44.53184786 Ry
     ewald contribution        =    -245.90011860 Ry
     smearing contrib. (-TS)   =       0.00301033 Ry

     total magnetization       =    -0.00 Bohr mag/cell
     absolute magnetization    =     5.06 Bohr mag/cell

     convergence has been achieved in  10 iterations

     Writing output data file cr-3.07.save/

     init_run     :      0.92s CPU      0.98s WALL (       1 calls)
     electrons    :     18.40s CPU     19.53s WALL (       1 calls)

     Called by init_run:
     wfcinit      :      0.40s CPU      0.42s WALL (       1 calls)
     potinit      :      0.09s CPU      0.10s WALL (       1 calls)
     hinit0       :      0.27s CPU      0.27s WALL (       1 calls)

     Called by electrons:
     c_bands      :     14.09s CPU     14.58s WALL (      11 calls)
     sum_band     :      3.10s CPU      3.46s WALL (      11 calls)
     v_of_rho     :      0.51s CPU      0.56s WALL (      11 calls)
     newd         :      0.71s CPU      0.97s WALL (      11 calls)
     mix_rho      :      0.06s CPU      0.06s WALL (      11 calls)

     Called by c_bands:
     init_us_2    :      0.16s CPU      0.17s WALL (     920 calls)
     cegterg      :     13.47s CPU     13.95s WALL (     440 calls)

     Called by sum_band:
     sum_band:bec :      0.01s CPU      0.01s WALL (     440 calls)
     addusdens    :      1.25s CPU      1.53s WALL (      11 calls)

     Called by *egterg:
     h_psi        :      9.09s CPU      9.46s WALL (    2039 calls)
     s_psi        :      0.56s CPU      0.58s WALL (    2039 calls)
     g_psi        :      0.05s CPU      0.05s WALL (    1559 calls)
     cdiaghg      :      1.33s CPU      1.36s WALL (    1959 calls)

     Called by h_psi:
     h_psi:pot    :      9.06s CPU      9.43s WALL (    2039 calls)
     h_psi:calbec :      0.82s CPU      0.85s WALL (    2039 calls)
     vloc_psi     :      7.69s CPU      8.00s WALL (    2039 calls)
     add_vuspsi   :      0.55s CPU      0.58s WALL (    2039 calls)

     General routines
     calbec       :      1.08s CPU      1.13s WALL (    2479 calls)
     fft          :      0.31s CPU      0.33s WALL (     271 calls)
     ffts         :      0.01s CPU      0.01s WALL (      44 calls)
     fftw         :      8.37s CPU      8.72s WALL (   53704 calls)
     interpolate  :      0.03s CPU      0.03s WALL (      22 calls)

     Parallel routines
     fft_scatt_xy :      0.54s CPU      0.57s WALL (   54019 calls)
     fft_scatt_yz :      3.90s CPU      4.06s WALL (   54019 calls)

     PWSCF        :     20.81s CPU     22.04s WALL


   This run was terminated on:  12:50:56  10Mar2022            

=------------------------------------------------------------------------------=
   JOB DONE.
=------------------------------------------------------------------------------=
