
     Program PWSCF v.6.4.1 starts on 26May2022 at  0:24:56 

     This program is part of the open-source Quantum ESPRESSO suite
     for quantum simulation of materials; please cite
         "P. Giannozzi et al., J. Phys.:Condens. Matter 21 395502 (2009);
         "P. Giannozzi et al., J. Phys.:Condens. Matter 29 465901 (2017);
          URL http://www.quantum-espresso.org", 
     in publications or presentations arising from this work. More details at
     http://www.quantum-espresso.org/quote

     Parallel version (MPI), running on     6 processors

     MPI processes distributed on     1 nodes
     R & G space division:  proc/nbgrp/npool/nimage =       6
     Reading input from mn-15.in

     Current dimensions of program PWSCF are:
     Max number of different atomic species (ntypx) = 10
     Max number of k-points (npk) =  40000
     Max angular momentum in pseudopotentials (lmaxx) =  3
               file Mn.pbe-spn-rrkjus_psl.0.3.1.UPF: wavefunction(s)  3D renormalized
               file Mn.pbe-spn-rrkjus_psl.0.3.1.UPF: wavefunction(s)  3D renormalized

     Subspace diagonalization in iterative solution of the eigenvalue problem:
     a serial algorithm will be used

     Message from routine setup:
     DEPRECATED: symmetry with ibrav=0, use correct ibrav instead

     Parallelization info
     --------------------
     sticks:   dense  smooth     PW     G-vecs:    dense   smooth      PW
     Min        3382     902    242               362802    49988    6974
     Max        3383     903    243               362807    49991    6977
     Sum       20297    5417   1457              2176833   299939   41851



     bravais-lattice index     =            0
     lattice parameter (alat)  =      16.8375  a.u.
     unit-cell volume          =    4773.4208 (a.u.)^3
     number of atoms/cell      =            2
     number of atomic types    =            2
     number of electrons       =        30.00
     number of Kohn-Sham states=           19
     kinetic-energy cutoff     =      60.0000  Ry
     charge density cutoff     =     900.0000  Ry
     convergence threshold     =      1.0E-06
     mixing beta               =       0.7000
     number of iterations used =            8  plain     mixing
     Exchange-correlation      = PBE ( 1  4  3  4 0 0)

     celldm(1)=  16.837460  celldm(2)=   0.000000  celldm(3)=   0.000000
     celldm(4)=   0.000000  celldm(5)=   0.000000  celldm(6)=   0.000000

     crystal axes: (cart. coord. in units of alat)
               a(1) = (   1.000000   0.000000   0.000000 )  
               a(2) = (   0.000000   1.000000   0.000000 )  
               a(3) = (   0.000000   0.000000   1.000000 )  

     reciprocal axes: (cart. coord. in units 2 pi/alat)
               b(1) = (  1.000000  0.000000  0.000000 )  
               b(2) = (  0.000000  1.000000  0.000000 )  
               b(3) = (  0.000000  0.000000  1.000000 )  


     PseudoPot. # 1 for Mn read from file:
     /home/cristian/Escritorio/Proyecto_Grafeno/pseudopotenciales/Mn.pbe-spn-rrkjus_psl.0.3.1.UPF
     MD5 check sum: e1cac159bdd2ba70c18e85765a5d4279
     Pseudo is Ultrasoft + core correction, Zval = 15.0
     Generated using "atomic" code by A. Dal Corso v.6.2.2
     Using radial grid of 1187 points,  6 beta functions with: 
                l(1) =   0
                l(2) =   0
                l(3) =   1
                l(4) =   1
                l(5) =   2
                l(6) =   2
     Q(r) pseudized with 0 coefficients 


     PseudoPot. # 2 for Mn read from file:
     /home/cristian/Escritorio/Proyecto_Grafeno/pseudopotenciales/Mn.pbe-spn-rrkjus_psl.0.3.1.UPF
     MD5 check sum: e1cac159bdd2ba70c18e85765a5d4279
     Pseudo is Ultrasoft + core correction, Zval = 15.0
     Generated using "atomic" code by A. Dal Corso v.6.2.2
     Using radial grid of 1187 points,  6 beta functions with: 
                l(1) =   0
                l(2) =   0
                l(3) =   1
                l(4) =   1
                l(5) =   2
                l(6) =   2
     Q(r) pseudized with 0 coefficients 


     atomic species   valence    mass     pseudopotential
        Mn1           15.00    54.93804     Mn( 1.00)
        Mn2           15.00    54.93804     Mn( 1.00)

     Starting magnetic structure 
     atomic species   magnetization
        Mn1          0.100
        Mn2         -0.100

     48 Sym. Ops., with inversion, found



   Cartesian axes

     site n.     atom                  positions (alat units)
         1           Mn1 tau(   1) = (   0.0000000   0.0000000   0.0000000  )
         2           Mn2 tau(   2) = (   0.5000000   0.5000000   0.5000000  )

     number of k points=    20  Methfessel-Paxton smearing, width (Ry)=  0.0300
                       cart. coord. in units 2pi/alat
        k(    1) = (   0.0625000   0.0625000   0.0625000), wk =   0.0156250
        k(    2) = (   0.0625000   0.0625000   0.1875000), wk =   0.0468750
        k(    3) = (   0.0625000   0.0625000   0.3125000), wk =   0.0468750
        k(    4) = (   0.0625000   0.0625000   0.4375000), wk =   0.0468750
        k(    5) = (   0.0625000   0.1875000   0.1875000), wk =   0.0468750
        k(    6) = (   0.0625000   0.1875000   0.3125000), wk =   0.0937500
        k(    7) = (   0.0625000   0.1875000   0.4375000), wk =   0.0937500
        k(    8) = (   0.0625000   0.3125000   0.3125000), wk =   0.0468750
        k(    9) = (   0.0625000   0.3125000   0.4375000), wk =   0.0937500
        k(   10) = (   0.0625000   0.4375000   0.4375000), wk =   0.0468750
        k(   11) = (   0.1875000   0.1875000   0.1875000), wk =   0.0156250
        k(   12) = (   0.1875000   0.1875000   0.3125000), wk =   0.0468750
        k(   13) = (   0.1875000   0.1875000   0.4375000), wk =   0.0468750
        k(   14) = (   0.1875000   0.3125000   0.3125000), wk =   0.0468750
        k(   15) = (   0.1875000   0.3125000   0.4375000), wk =   0.0937500
        k(   16) = (   0.1875000   0.4375000   0.4375000), wk =   0.0468750
        k(   17) = (   0.3125000   0.3125000   0.3125000), wk =   0.0156250
        k(   18) = (   0.3125000   0.3125000   0.4375000), wk =   0.0468750
        k(   19) = (   0.3125000   0.4375000   0.4375000), wk =   0.0468750
        k(   20) = (   0.4375000   0.4375000   0.4375000), wk =   0.0156250

     Dense  grid:  2176833 G-vectors     FFT dimensions: ( 162, 162, 162)

     Smooth grid:   299939 G-vectors     FFT dimensions: (  90,  90,  90)

     Estimated max dynamical RAM per process >       1.44 GB

     Estimated total dynamical RAM >       8.66 GB
     Generating pointlists ...
     new r_m :   0.3572 (alat units)  6.0149 (a.u.) for type    1
     new r_m :   0.3572 (alat units)  6.0149 (a.u.) for type    2

     Initial potential from superposition of free atoms

     starting charge   29.99900, renormalised to   30.00000
     Starting wfcs are   20 randomized atomic wfcs

     total cpu time spent up to now is       20.2 secs

     Self-consistent Calculation

     iteration #  1     ecut=    60.00 Ry     beta= 0.70
     Davidson diagonalization with overlap
     ethr =  1.00E-02,  avg # of iterations =  1.0

     total cpu time spent up to now is       64.2 secs

     total energy              =    -424.94337832 Ry
     Harris-Foulkes estimate   =    -427.04362264 Ry
     estimated scf accuracy    <       2.74253980 Ry

     total magnetization       =    -0.00 Bohr mag/cell
     absolute magnetization    =     5.98 Bohr mag/cell

     iteration #  2     ecut=    60.00 Ry     beta= 0.70
     Davidson diagonalization with overlap
     ethr =  9.14E-03,  avg # of iterations = 10.9

     total cpu time spent up to now is      153.0 secs

     total energy              =    -423.45119490 Ry
     Harris-Foulkes estimate   =    -433.86574145 Ry
     estimated scf accuracy    <      46.97960574 Ry

     total magnetization       =     0.02 Bohr mag/cell
     absolute magnetization    =     0.49 Bohr mag/cell

     iteration #  3     ecut=    60.00 Ry     beta= 0.70
     Davidson diagonalization with overlap
     ethr =  9.14E-03,  avg # of iterations =  8.1

     total cpu time spent up to now is      211.2 secs

     total energy              =    -424.96858680 Ry
     Harris-Foulkes estimate   =    -425.74399285 Ry
     estimated scf accuracy    <       6.29436440 Ry

     total magnetization       =     0.15 Bohr mag/cell
     absolute magnetization    =     4.93 Bohr mag/cell

     iteration #  4     ecut=    60.00 Ry     beta= 0.70
     Davidson diagonalization with overlap
     ethr =  9.14E-03,  avg # of iterations =  6.4

     total cpu time spent up to now is      262.7 secs

     total energy              =    -426.54574209 Ry
     Harris-Foulkes estimate   =    -426.59426505 Ry
     estimated scf accuracy    <       0.36418914 Ry

     total magnetization       =    -1.68 Bohr mag/cell
     absolute magnetization    =     5.35 Bohr mag/cell

     iteration #  5     ecut=    60.00 Ry     beta= 0.70
     Davidson diagonalization with overlap
     ethr =  1.21E-03,  avg # of iterations =  6.7

     total cpu time spent up to now is      321.1 secs

     total energy              =    -426.94605163 Ry
     Harris-Foulkes estimate   =    -426.94753311 Ry
     estimated scf accuracy    <       0.79713972 Ry

     total magnetization       =     0.30 Bohr mag/cell
     absolute magnetization    =     8.86 Bohr mag/cell

     iteration #  6     ecut=    60.00 Ry     beta= 0.70
     Davidson diagonalization with overlap
     ethr =  1.21E-03,  avg # of iterations =  1.3

     total cpu time spent up to now is      368.3 secs

     total energy              =    -427.04067542 Ry
     Harris-Foulkes estimate   =    -426.98250464 Ry
     estimated scf accuracy    <       4.11941926 Ry

     total magnetization       =     2.15 Bohr mag/cell
     absolute magnetization    =     6.96 Bohr mag/cell

     iteration #  7     ecut=    60.00 Ry     beta= 0.70
     Davidson diagonalization with overlap
     ethr =  1.21E-03,  avg # of iterations =  1.9

     total cpu time spent up to now is      413.8 secs

     total energy              =    -427.17619914 Ry
     Harris-Foulkes estimate   =    -427.13318928 Ry
     estimated scf accuracy    <       2.96436272 Ry

     total magnetization       =     0.06 Bohr mag/cell
     absolute magnetization    =     5.79 Bohr mag/cell

     iteration #  8     ecut=    60.00 Ry     beta= 0.70
     Davidson diagonalization with overlap
     ethr =  1.21E-03,  avg # of iterations =  2.0

     total cpu time spent up to now is      457.9 secs

     total energy              =    -426.73316981 Ry
     Harris-Foulkes estimate   =    -427.30998713 Ry
     estimated scf accuracy    <       9.53087314 Ry

     total magnetization       =     4.14 Bohr mag/cell
     absolute magnetization    =     4.14 Bohr mag/cell

     iteration #  9     ecut=    60.00 Ry     beta= 0.70
     Davidson diagonalization with overlap
     ethr =  1.21E-03,  avg # of iterations =  1.4

     total cpu time spent up to now is      502.1 secs

     total energy              =    -427.03767466 Ry
     Harris-Foulkes estimate   =    -427.03910237 Ry
     estimated scf accuracy    <       6.16043639 Ry

     total magnetization       =     3.31 Bohr mag/cell
     absolute magnetization    =     6.15 Bohr mag/cell

     iteration # 10     ecut=    60.00 Ry     beta= 0.70
     Davidson diagonalization with overlap
     ethr =  1.21E-03,  avg # of iterations =  1.0

     total cpu time spent up to now is      543.5 secs

     total energy              =    -426.92477668 Ry
     Harris-Foulkes estimate   =    -427.03829825 Ry
     estimated scf accuracy    <       6.23972357 Ry

     total magnetization       =     3.36 Bohr mag/cell
     absolute magnetization    =     6.23 Bohr mag/cell

     iteration # 11     ecut=    60.00 Ry     beta= 0.70
     Davidson diagonalization with overlap
     ethr =  1.21E-03,  avg # of iterations =  1.0

     total cpu time spent up to now is      584.9 secs

     total energy              =    -426.91313552 Ry
     Harris-Foulkes estimate   =    -426.94683436 Ry
     estimated scf accuracy    <       1.33031058 Ry

     total magnetization       =    -0.04 Bohr mag/cell
     absolute magnetization    =     7.67 Bohr mag/cell

     iteration # 12     ecut=    60.00 Ry     beta= 0.70
     Davidson diagonalization with overlap
     ethr =  1.21E-03,  avg # of iterations =  1.0

     negative rho (up, down):  0.000E+00 6.612E-01

     total cpu time spent up to now is      626.0 secs

     total energy              =    -426.49682434 Ry
     Harris-Foulkes estimate   =    -426.94113071 Ry
     estimated scf accuracy    <       1.50246995 Ry

     total magnetization       =     1.52 Bohr mag/cell
     absolute magnetization    =     9.68 Bohr mag/cell

     iteration # 13     ecut=    60.00 Ry     beta= 0.70
     Davidson diagonalization with overlap
     ethr =  1.21E-03,  avg # of iterations =  9.6

     total cpu time spent up to now is      687.2 secs

     total energy              =    -427.02443910 Ry
     Harris-Foulkes estimate   =    -427.07429795 Ry
     estimated scf accuracy    <       0.75684224 Ry

     total magnetization       =    -0.02 Bohr mag/cell
     absolute magnetization    =    11.05 Bohr mag/cell

     iteration # 14     ecut=    60.00 Ry     beta= 0.70
     Davidson diagonalization with overlap
     ethr =  1.21E-03,  avg # of iterations =  3.0

     total cpu time spent up to now is      734.8 secs

     total energy              =    -427.09243374 Ry
     Harris-Foulkes estimate   =    -427.09059536 Ry
     estimated scf accuracy    <       0.23246440 Ry

     total magnetization       =     0.01 Bohr mag/cell
     absolute magnetization    =    10.17 Bohr mag/cell

     iteration # 15     ecut=    60.00 Ry     beta= 0.70
     Davidson diagonalization with overlap
     ethr =  7.75E-04,  avg # of iterations =  1.1

     total cpu time spent up to now is      776.5 secs

     total energy              =    -427.11525683 Ry
     Harris-Foulkes estimate   =    -427.09499718 Ry
     estimated scf accuracy    <       0.24491314 Ry

     total magnetization       =     0.03 Bohr mag/cell
     absolute magnetization    =    10.19 Bohr mag/cell

     iteration # 16     ecut=    60.00 Ry     beta= 0.70
     Davidson diagonalization with overlap
     ethr =  7.75E-04,  avg # of iterations =  1.0

     negative rho (up, down):  1.187E-03 2.217E-01

     total cpu time spent up to now is      819.8 secs

     total energy              =    -427.11920822 Ry
     Harris-Foulkes estimate   =    -427.11725923 Ry
     estimated scf accuracy    <       0.20976689 Ry

     total magnetization       =     0.03 Bohr mag/cell
     absolute magnetization    =    10.19 Bohr mag/cell

     iteration # 17     ecut=    60.00 Ry     beta= 0.70
     Davidson diagonalization with overlap
     ethr =  6.99E-04,  avg # of iterations =  3.3

     negative rho (up, down):  6.312E-03 3.025E-01

     total cpu time spent up to now is      864.1 secs

     total energy              =    -427.10326552 Ry
     Harris-Foulkes estimate   =    -427.12067646 Ry
     estimated scf accuracy    <       0.19427315 Ry

     total magnetization       =     0.14 Bohr mag/cell
     absolute magnetization    =    10.18 Bohr mag/cell

     iteration # 18     ecut=    60.00 Ry     beta= 0.70
     Davidson diagonalization with overlap
     ethr =  6.48E-04,  avg # of iterations =  1.2

     negative rho (up, down):  0.000E+00 5.559E-02

     total cpu time spent up to now is      908.1 secs

     total energy              =    -427.05938451 Ry
     Harris-Foulkes estimate   =    -427.10630202 Ry
     estimated scf accuracy    <       0.16058224 Ry

     total magnetization       =     0.45 Bohr mag/cell
     absolute magnetization    =    10.14 Bohr mag/cell

     iteration # 19     ecut=    60.00 Ry     beta= 0.70
     Davidson diagonalization with overlap
     ethr =  5.35E-04,  avg # of iterations =  2.6

     total cpu time spent up to now is      953.4 secs

     total energy              =    -427.13190904 Ry
     Harris-Foulkes estimate   =    -427.06294387 Ry
     estimated scf accuracy    <       0.21675942 Ry

     total magnetization       =     0.45 Bohr mag/cell
     absolute magnetization    =    10.16 Bohr mag/cell

     iteration # 20     ecut=    60.00 Ry     beta= 0.70
     Davidson diagonalization with overlap
     ethr =  5.35E-04,  avg # of iterations =  1.8

     total cpu time spent up to now is      997.1 secs

     total energy              =    -427.11753541 Ry
     Harris-Foulkes estimate   =    -427.13758949 Ry
     estimated scf accuracy    <       0.14915328 Ry

     total magnetization       =     0.01 Bohr mag/cell
     absolute magnetization    =    10.18 Bohr mag/cell

     iteration # 21     ecut=    60.00 Ry     beta= 0.70
     Davidson diagonalization with overlap
     ethr =  4.97E-04,  avg # of iterations =  1.5

     total cpu time spent up to now is     1043.6 secs

     total energy              =    -427.09467986 Ry
     Harris-Foulkes estimate   =    -427.12348741 Ry
     estimated scf accuracy    <       0.08527744 Ry

     total magnetization       =     0.21 Bohr mag/cell
     absolute magnetization    =    10.18 Bohr mag/cell

     iteration # 22     ecut=    60.00 Ry     beta= 0.70
     Davidson diagonalization with overlap
     ethr =  2.84E-04,  avg # of iterations =  3.9

     total cpu time spent up to now is     1094.0 secs

     total energy              =    -427.01390137 Ry
     Harris-Foulkes estimate   =    -427.19551921 Ry
     estimated scf accuracy    <       1.16885458 Ry

     total magnetization       =    -2.02 Bohr mag/cell
     absolute magnetization    =    10.10 Bohr mag/cell

     iteration # 23     ecut=    60.00 Ry     beta= 0.70
     Davidson diagonalization with overlap
     ethr =  2.84E-04,  avg # of iterations =  4.3

     total cpu time spent up to now is     1143.7 secs

     total energy              =    -427.11677255 Ry
     Harris-Foulkes estimate   =    -427.12263364 Ry
     estimated scf accuracy    <       0.05998586 Ry

     total magnetization       =     0.48 Bohr mag/cell
     absolute magnetization    =    10.14 Bohr mag/cell

     iteration # 24     ecut=    60.00 Ry     beta= 0.70
     Davidson diagonalization with overlap
     ethr =  2.00E-04,  avg # of iterations =  1.8

     total cpu time spent up to now is     1187.8 secs

     total energy              =    -427.11699558 Ry
     Harris-Foulkes estimate   =    -427.12179476 Ry
     estimated scf accuracy    <       0.04926482 Ry

     total magnetization       =     0.16 Bohr mag/cell
     absolute magnetization    =    10.20 Bohr mag/cell

     iteration # 25     ecut=    60.00 Ry     beta= 0.70
     Davidson diagonalization with overlap
     ethr =  1.64E-04,  avg # of iterations =  2.2

     total cpu time spent up to now is     1233.9 secs

     total energy              =    -427.12190310 Ry
     Harris-Foulkes estimate   =    -427.12235435 Ry
     estimated scf accuracy    <       0.00896467 Ry

     total magnetization       =    -0.12 Bohr mag/cell
     absolute magnetization    =    10.18 Bohr mag/cell

     iteration # 26     ecut=    60.00 Ry     beta= 0.70
     Davidson diagonalization with overlap
     ethr =  2.99E-05,  avg # of iterations =  6.4

     total cpu time spent up to now is     1286.7 secs

     total energy              =    -427.10874413 Ry
     Harris-Foulkes estimate   =    -427.12343652 Ry
     estimated scf accuracy    <       0.03338800 Ry

     total magnetization       =     0.06 Bohr mag/cell
     absolute magnetization    =    10.20 Bohr mag/cell

     iteration # 27     ecut=    60.00 Ry     beta= 0.70
     Davidson diagonalization with overlap
     ethr =  2.99E-05,  avg # of iterations =  3.6

     total cpu time spent up to now is     1341.7 secs

     total energy              =    -427.11726286 Ry
     Harris-Foulkes estimate   =    -427.12295947 Ry
     estimated scf accuracy    <       0.02701650 Ry

     total magnetization       =    -0.10 Bohr mag/cell
     absolute magnetization    =    10.10 Bohr mag/cell

     iteration # 28     ecut=    60.00 Ry     beta= 0.70
     Davidson diagonalization with overlap
     ethr =  2.99E-05,  avg # of iterations =  2.5

     total cpu time spent up to now is     1388.5 secs

     total energy              =    -427.12031345 Ry
     Harris-Foulkes estimate   =    -427.12027968 Ry
     estimated scf accuracy    <       0.00006445 Ry

     total magnetization       =    -0.01 Bohr mag/cell
     absolute magnetization    =    10.18 Bohr mag/cell

     iteration # 29     ecut=    60.00 Ry     beta= 0.70
     Davidson diagonalization with overlap
     ethr =  2.15E-07,  avg # of iterations =  5.4

     total cpu time spent up to now is     1444.4 secs

     total energy              =    -427.12000237 Ry
     Harris-Foulkes estimate   =    -427.12022088 Ry
     estimated scf accuracy    <       0.00113565 Ry

     total magnetization       =     0.01 Bohr mag/cell
     absolute magnetization    =    10.19 Bohr mag/cell

     iteration # 30     ecut=    60.00 Ry     beta= 0.70
     Davidson diagonalization with overlap
     ethr =  2.15E-07,  avg # of iterations =  3.0

     total cpu time spent up to now is     1494.3 secs

     total energy              =    -427.12004544 Ry
     Harris-Foulkes estimate   =    -427.12007248 Ry
     estimated scf accuracy    <       0.00021361 Ry

     total magnetization       =     0.02 Bohr mag/cell
     absolute magnetization    =    10.18 Bohr mag/cell

     iteration # 31     ecut=    60.00 Ry     beta= 0.70
     Davidson diagonalization with overlap
     ethr =  2.15E-07,  avg # of iterations =  1.6

     total cpu time spent up to now is     1538.5 secs

     total energy              =    -427.12004677 Ry
     Harris-Foulkes estimate   =    -427.12005351 Ry
     estimated scf accuracy    <       0.00003424 Ry

     total magnetization       =    -0.00 Bohr mag/cell
     absolute magnetization    =    10.18 Bohr mag/cell

     iteration # 32     ecut=    60.00 Ry     beta= 0.70
     Davidson diagonalization with overlap
     ethr =  1.14E-07,  avg # of iterations =  2.5

     total cpu time spent up to now is     1584.7 secs

     total energy              =    -427.12004676 Ry
     Harris-Foulkes estimate   =    -427.12004988 Ry
     estimated scf accuracy    <       0.00000304 Ry

     total magnetization       =    -0.00 Bohr mag/cell
     absolute magnetization    =    10.18 Bohr mag/cell

     iteration # 33     ecut=    60.00 Ry     beta= 0.70
     Davidson diagonalization with overlap
     ethr =  1.01E-08,  avg # of iterations =  4.5

     total cpu time spent up to now is     1639.0 secs

     total energy              =    -427.12000644 Ry
     Harris-Foulkes estimate   =    -427.12001434 Ry
     estimated scf accuracy    <       0.00006308 Ry

     total magnetization       =    -0.01 Bohr mag/cell
     absolute magnetization    =    10.18 Bohr mag/cell

     iteration # 34     ecut=    60.00 Ry     beta= 0.70
     Davidson diagonalization with overlap
     ethr =  1.01E-08,  avg # of iterations =  3.0

     total cpu time spent up to now is     1688.5 secs

     total energy              =    -427.12000923 Ry
     Harris-Foulkes estimate   =    -427.12000957 Ry
     estimated scf accuracy    <       0.00000494 Ry

     total magnetization       =    -0.00 Bohr mag/cell
     absolute magnetization    =    10.18 Bohr mag/cell

     iteration # 35     ecut=    60.00 Ry     beta= 0.70
     Davidson diagonalization with overlap
     ethr =  1.01E-08,  avg # of iterations =  1.0

     Magnetic moment per site:
     atom:    1    charge:   14.9654    magn:    5.0128    constr:    0.0000
     atom:    2    charge:   14.9652    magn:   -5.0130    constr:    0.0000

     total cpu time spent up to now is     1732.4 secs

     End of self-consistent calculation

 ------ SPIN UP ------------


          k = 0.0625 0.0625 0.0625 ( 37509 PWs)   bands (ev):

   -86.5604 -81.1719 -55.2624 -55.2624 -55.2624 -49.9920 -49.9920 -49.9920
    -7.2555  -7.2555  -7.2555  -7.2554  -7.2554  -4.5742  -3.5416  -2.8224
    -2.8218  -2.8200  -2.8200

          k = 0.0625 0.0625 0.1875 ( 37474 PWs)   bands (ev):

   -86.5604 -81.1719 -55.2624 -55.2624 -55.2624 -49.9920 -49.9920 -49.9920
    -7.2555  -7.2554  -7.2554  -7.2554  -7.2553  -4.5723  -3.5399  -2.8219
    -2.8215  -2.8201  -2.8201

          k = 0.0625 0.0625 0.3125 ( 37486 PWs)   bands (ev):

   -86.5604 -81.1719 -55.2624 -55.2624 -55.2624 -49.9920 -49.9920 -49.9920
    -7.2555  -7.2555  -7.2554  -7.2553  -7.2553  -4.5697  -3.5376  -2.8222
    -2.8212  -2.8204  -2.8203

          k = 0.0625 0.0625 0.4375 ( 37493 PWs)   bands (ev):

   -86.5604 -81.1719 -55.2624 -55.2624 -55.2624 -49.9920 -49.9920 -49.9920
    -7.2555  -7.2555  -7.2554  -7.2553  -7.2553  -4.5678  -3.5359  -2.8210
    -2.8207  -2.8205  -2.8202

          k = 0.0625 0.1875 0.1875 ( 37486 PWs)   bands (ev):

   -86.5604 -81.1719 -55.2624 -55.2624 -55.2624 -49.9920 -49.9920 -49.9920
    -7.2555  -7.2555  -7.2554  -7.2553  -7.2553  -4.5706  -3.5378  -2.8220
    -2.8215  -2.8203  -2.8201

          k = 0.0625 0.1875 0.3125 ( 37437 PWs)   bands (ev):

   -86.5604 -81.1719 -55.2624 -55.2624 -55.2624 -49.9920 -49.9920 -49.9920
    -7.2555  -7.2554  -7.2554  -7.2553  -7.2553  -4.5681  -3.5347  -2.8212
    -2.8207  -2.8204  -2.8202

          k = 0.0625 0.1875 0.4375 ( 37481 PWs)   bands (ev):

   -86.5604 -81.1719 -55.2624 -55.2624 -55.2624 -49.9920 -49.9920 -49.9920
    -7.2555  -7.2555  -7.2555  -7.2553  -7.2553  -4.5663  -3.5325  -2.8209
    -2.8206  -2.8205  -2.8203

          k = 0.0625 0.3125 0.3125 ( 37469 PWs)   bands (ev):

   -86.5604 -81.1719 -55.2624 -55.2624 -55.2624 -49.9920 -49.9920 -49.9920
    -7.2555  -7.2555  -7.2554  -7.2553  -7.2553  -4.5658  -3.5306  -2.8216
    -2.8206  -2.8205  -2.8203

          k = 0.0625 0.3125 0.4375 ( 37432 PWs)   bands (ev):

   -86.5604 -81.1719 -55.2624 -55.2624 -55.2624 -49.9920 -49.9920 -49.9920
    -7.2555  -7.2554  -7.2554  -7.2553  -7.2552  -4.5642  -3.5276  -2.8210
    -2.8206  -2.8204  -2.8202

          k = 0.0625 0.4375 0.4375 ( 37435 PWs)   bands (ev):

   -86.5604 -81.1719 -55.2624 -55.2624 -55.2624 -49.9920 -49.9920 -49.9920
    -7.2555  -7.2554  -7.2554  -7.2553  -7.2552  -4.5628  -3.5242  -2.8214
    -2.8208  -2.8204  -2.8202

          k = 0.1875 0.1875 0.1875 ( 37455 PWs)   bands (ev):

   -86.5604 -81.1719 -55.2624 -55.2624 -55.2624 -49.9920 -49.9920 -49.9920
    -7.2555  -7.2554  -7.2554  -7.2553  -7.2553  -4.5689  -3.5353  -2.8216
    -2.8208  -2.8203  -2.8202

          k = 0.1875 0.1875 0.3125 ( 37447 PWs)   bands (ev):

   -86.5604 -81.1719 -55.2624 -55.2624 -55.2624 -49.9920 -49.9920 -49.9920
    -7.2555  -7.2555  -7.2554  -7.2553  -7.2553  -4.5666  -3.5317  -2.8216
    -2.8209  -2.8205  -2.8204

          k = 0.1875 0.1875 0.4375 ( 37443 PWs)   bands (ev):

   -86.5604 -81.1719 -55.2624 -55.2624 -55.2624 -49.9920 -49.9920 -49.9920
    -7.2555  -7.2554  -7.2554  -7.2553  -7.2552  -4.5649  -3.5292  -2.8215
    -2.8207  -2.8205  -2.8203

          k = 0.1875 0.3125 0.3125 ( 37465 PWs)   bands (ev):

   -86.5604 -81.1719 -55.2624 -55.2624 -55.2624 -49.9920 -49.9920 -49.9920
    -7.2555  -7.2555  -7.2555  -7.2553  -7.2553  -4.5644  -3.5275  -2.8212
    -2.8207  -2.8206  -2.8205

          k = 0.1875 0.3125 0.4375 ( 37477 PWs)   bands (ev):

   -86.5604 -81.1719 -55.2624 -55.2624 -55.2624 -49.9920 -49.9920 -49.9920
    -7.2555  -7.2555  -7.2555  -7.2553  -7.2552  -4.5629  -3.5245  -2.8209
    -2.8206  -2.8204  -2.8202

          k = 0.1875 0.4375 0.4375 ( 37473 PWs)   bands (ev):

   -86.5604 -81.1719 -55.2624 -55.2624 -55.2624 -49.9920 -49.9920 -49.9920
    -7.2555  -7.2555  -7.2554  -7.2553  -7.2552  -4.5614  -3.5211  -2.8209
    -2.8206  -2.8206  -2.8199

          k = 0.3125 0.3125 0.3125 ( 37455 PWs)   bands (ev):

   -86.5604 -81.1719 -55.2624 -55.2624 -55.2624 -49.9920 -49.9920 -49.9920
    -7.2555  -7.2555  -7.2554  -7.2552  -7.2552  -4.5624  -3.5231  -2.8208
    -2.8207  -2.8205  -2.8205

          k = 0.3125 0.3125 0.4375 ( 37474 PWs)   bands (ev):

   -86.5604 -81.1719 -55.2624 -55.2624 -55.2624 -49.9920 -49.9920 -49.9920
    -7.2555  -7.2555  -7.2555  -7.2553  -7.2552  -4.5609  -3.5200  -2.8209
    -2.8207  -2.8206  -2.8204

          k = 0.3125 0.4375 0.4375 ( 37498 PWs)   bands (ev):

   -86.5604 -81.1719 -55.2624 -55.2624 -55.2624 -49.9920 -49.9920 -49.9920
    -7.2555  -7.2555  -7.2555  -7.2553  -7.2552  -4.5595  -3.5167  -2.8211
    -2.8209  -2.8209  -2.8199

          k = 0.4375 0.4375 0.4375 ( 37506 PWs)   bands (ev):

   -86.5604 -81.1719 -55.2624 -55.2624 -55.2624 -49.9920 -49.9920 -49.9920
    -7.2555  -7.2555  -7.2555  -7.2552  -7.2552  -4.5582  -3.5136  -2.8211
    -2.8211  -2.8211  -2.8198

 ------ SPIN DOWN ----------


          k = 0.0625 0.0625 0.0625 ( 37509 PWs)   bands (ev):

   -86.5607 -81.1720 -55.2627 -55.2627 -55.2627 -49.9921 -49.9921 -49.9921
    -7.2557  -7.2557  -7.2557  -7.2554  -7.2554  -4.5742  -3.5414  -2.8221
    -2.8219  -2.8202  -2.8202

          k = 0.0625 0.0625 0.1875 ( 37474 PWs)   bands (ev):

   -86.5607 -81.1719 -55.2627 -55.2627 -55.2627 -49.9921 -49.9921 -49.9921
    -7.2557  -7.2557  -7.2557  -7.2554  -7.2554  -4.5723  -3.5397  -2.8221
    -2.8216  -2.8203  -2.8202

          k = 0.0625 0.0625 0.3125 ( 37486 PWs)   bands (ev):

   -86.5607 -81.1719 -55.2627 -55.2627 -55.2627 -49.9921 -49.9921 -49.9921
    -7.2557  -7.2557  -7.2557  -7.2554  -7.2554  -4.5697  -3.5374  -2.8218
    -2.8209  -2.8205  -2.8204

          k = 0.0625 0.0625 0.4375 ( 37493 PWs)   bands (ev):

   -86.5607 -81.1719 -55.2627 -55.2627 -55.2627 -49.9921 -49.9921 -49.9921
    -7.2557  -7.2557  -7.2557  -7.2554  -7.2554  -4.5678  -3.5357  -2.8220
    -2.8207  -2.8206  -2.8204

          k = 0.0625 0.1875 0.1875 ( 37486 PWs)   bands (ev):

   -86.5607 -81.1719 -55.2627 -55.2627 -55.2627 -49.9921 -49.9921 -49.9921
    -7.2557  -7.2557  -7.2557  -7.2554  -7.2554  -4.5706  -3.5375  -2.8219
    -2.8213  -2.8205  -2.8203

          k = 0.0625 0.1875 0.3125 ( 37437 PWs)   bands (ev):

   -86.5607 -81.1719 -55.2627 -55.2627 -55.2627 -49.9921 -49.9921 -49.9921
    -7.2557  -7.2557  -7.2557  -7.2554  -7.2553  -4.5681  -3.5345  -2.8217
    -2.8208  -2.8206  -2.8204

          k = 0.0625 0.1875 0.4375 ( 37481 PWs)   bands (ev):

   -86.5607 -81.1719 -55.2627 -55.2627 -55.2627 -49.9921 -49.9921 -49.9921
    -7.2557  -7.2557  -7.2557  -7.2554  -7.2553  -4.5663  -3.5323  -2.8217
    -2.8208  -2.8206  -2.8203

          k = 0.0625 0.3125 0.3125 ( 37469 PWs)   bands (ev):

   -86.5607 -81.1719 -55.2627 -55.2627 -55.2627 -49.9921 -49.9921 -49.9921
    -7.2557  -7.2557  -7.2557  -7.2554  -7.2553  -4.5659  -3.5304  -2.8215
    -2.8208  -2.8204  -2.8204

          k = 0.0625 0.3125 0.4375 ( 37432 PWs)   bands (ev):

   -86.5607 -81.1719 -55.2627 -55.2627 -55.2627 -49.9921 -49.9921 -49.9921
    -7.2557  -7.2557  -7.2557  -7.2554  -7.2553  -4.5643  -3.5274  -2.8213
    -2.8209  -2.8205  -2.8202

          k = 0.0625 0.4375 0.4375 ( 37435 PWs)   bands (ev):

   -86.5607 -81.1719 -55.2627 -55.2627 -55.2627 -49.9921 -49.9921 -49.9921
    -7.2557  -7.2557  -7.2557  -7.2554  -7.2553  -4.5628  -3.5240  -2.8212
    -2.8210  -2.8206  -2.8198

          k = 0.1875 0.1875 0.1875 ( 37455 PWs)   bands (ev):

   -86.5607 -81.1719 -55.2627 -55.2627 -55.2627 -49.9921 -49.9921 -49.9921
    -7.2557  -7.2557  -7.2557  -7.2554  -7.2554  -4.5689  -3.5350  -2.8214
    -2.8213  -2.8204  -2.8204

          k = 0.1875 0.1875 0.3125 ( 37447 PWs)   bands (ev):

   -86.5607 -81.1719 -55.2627 -55.2627 -55.2627 -49.9921 -49.9921 -49.9921
    -7.2557  -7.2557  -7.2557  -7.2554  -7.2553  -4.5666  -3.5315  -2.8213
    -2.8207  -2.8206  -2.8205

          k = 0.1875 0.1875 0.4375 ( 37443 PWs)   bands (ev):

   -86.5607 -81.1719 -55.2627 -55.2627 -55.2627 -49.9921 -49.9921 -49.9921
    -7.2557  -7.2557  -7.2557  -7.2554  -7.2553  -4.5649  -3.5290  -2.8211
    -2.8209  -2.8206  -2.8204

          k = 0.1875 0.3125 0.3125 ( 37465 PWs)   bands (ev):

   -86.5607 -81.1719 -55.2627 -55.2627 -55.2627 -49.9921 -49.9921 -49.9921
    -7.2557  -7.2557  -7.2557  -7.2554  -7.2553  -4.5644  -3.5273  -2.8209
    -2.8207  -2.8206  -2.8204

          k = 0.1875 0.3125 0.4375 ( 37477 PWs)   bands (ev):

   -86.5607 -81.1719 -55.2627 -55.2627 -55.2627 -49.9921 -49.9921 -49.9921
    -7.2557  -7.2557  -7.2557  -7.2554  -7.2553  -4.5629  -3.5243  -2.8210
    -2.8209  -2.8207  -2.8206

          k = 0.1875 0.4375 0.4375 ( 37473 PWs)   bands (ev):

   -86.5607 -81.1719 -55.2627 -55.2627 -55.2627 -49.9921 -49.9921 -49.9921
    -7.2558  -7.2557  -7.2557  -7.2554  -7.2553  -4.5615  -3.5209  -2.8211
    -2.8208  -2.8208  -2.8208

          k = 0.3125 0.3125 0.3125 ( 37455 PWs)   bands (ev):

   -86.5607 -81.1719 -55.2627 -55.2627 -55.2627 -49.9921 -49.9921 -49.9921
    -7.2557  -7.2557  -7.2557  -7.2553  -7.2553  -4.5624  -3.5229  -2.8209
    -2.8209  -2.8207  -2.8203

          k = 0.3125 0.3125 0.4375 ( 37474 PWs)   bands (ev):

   -86.5607 -81.1719 -55.2627 -55.2627 -55.2627 -49.9921 -49.9921 -49.9921
    -7.2557  -7.2557  -7.2557  -7.2553  -7.2553  -4.5609  -3.5197  -2.8211
    -2.8210  -2.8209  -2.8200

          k = 0.3125 0.4375 0.4375 ( 37498 PWs)   bands (ev):

   -86.5607 -81.1719 -55.2627 -55.2627 -55.2627 -49.9921 -49.9921 -49.9921
    -7.2558  -7.2557  -7.2557  -7.2553  -7.2553  -4.5595  -3.5165  -2.8212
    -2.8211  -2.8210  -2.8201

          k = 0.4375 0.4375 0.4375 ( 37506 PWs)   bands (ev):

   -86.5607 -81.1719 -55.2627 -55.2627 -55.2627 -49.9921 -49.9921 -49.9921
    -7.2558  -7.2557  -7.2557  -7.2553  -7.2553  -4.5582  -3.5134  -2.8213
    -2.8213  -2.8197  -2.8196

     the Fermi energy is    -3.1684 ev

!    total energy              =    -427.12000938 Ry
     Harris-Foulkes estimate   =    -427.12000941 Ry
     estimated scf accuracy    <       0.00000005 Ry

     The total energy is the sum of the following terms:

     one-electron contribution =    -533.18200204 Ry
     hartree contribution      =     258.74076017 Ry
     xc contribution           =     -55.42574169 Ry
     ewald contribution        =     -97.26259587 Ry
     smearing contrib. (-TS)   =       0.00957004 Ry

     total magnetization       =    -0.00 Bohr mag/cell
     absolute magnetization    =    10.18 Bohr mag/cell

     convergence has been achieved in  35 iterations

     Writing output data file mn-15.save/

     init_run     :     17.22s CPU     18.79s WALL (       1 calls)
     electrons    :   1622.10s CPU   1712.45s WALL (       1 calls)

     Called by init_run:
     wfcinit      :      7.43s CPU      7.57s WALL (       1 calls)
     potinit      :      2.80s CPU      2.86s WALL (       1 calls)
     hinit0       :      1.32s CPU      1.34s WALL (       1 calls)

     Called by electrons:
     c_bands      :    685.44s CPU    694.86s WALL (      35 calls)
     sum_band     :    661.88s CPU    701.48s WALL (      35 calls)
     v_of_rho     :     77.50s CPU     80.30s WALL (      36 calls)
     newd         :    179.10s CPU    218.31s WALL (      36 calls)
     mix_rho      :     15.62s CPU     15.96s WALL (      35 calls)

     Called by c_bands:
     init_us_2    :      7.38s CPU      7.41s WALL (    2840 calls)
     cegterg      :    659.10s CPU    668.43s WALL (    1400 calls)

     Called by sum_band:
     sum_band:bec :      0.04s CPU      0.04s WALL (    1400 calls)
     addusdens    :    540.95s CPU    578.22s WALL (      35 calls)

     Called by *egterg:
     h_psi        :    488.02s CPU    496.82s WALL (    5989 calls)
     s_psi        :     28.35s CPU     28.51s WALL (    5989 calls)
     g_psi        :      2.14s CPU      2.15s WALL (    4549 calls)
     cdiaghg      :      4.40s CPU      4.42s WALL (    5949 calls)

     Called by h_psi:
     h_psi:pot    :    486.50s CPU    495.28s WALL (    5989 calls)
     h_psi:calbec :     42.47s CPU     42.77s WALL (    5989 calls)
     vloc_psi     :    413.86s CPU    422.24s WALL (    5989 calls)
     add_vuspsi   :     30.11s CPU     30.24s WALL (    5989 calls)

     General routines
     calbec       :     57.72s CPU     58.09s WALL (    7389 calls)
     fft          :     67.17s CPU     69.53s WALL (     894 calls)
     ffts         :      0.92s CPU      0.97s WALL (     142 calls)
     fftw         :    435.40s CPU    444.36s WALL (  166724 calls)
     interpolate  :      6.79s CPU      6.99s WALL (      72 calls)

     Parallel routines
     fft_scatt_xy :     58.29s CPU     59.34s WALL (  167760 calls)
     fft_scatt_yz :    189.08s CPU    195.16s WALL (  167760 calls)

     PWSCF        :  27m21.06s CPU  28m53.42s WALL


   This run was terminated on:   0:53:50  26May2022            

=------------------------------------------------------------------------------=
   JOB DONE.
=------------------------------------------------------------------------------=
