
     Program PWSCF v.6.4.1 starts on  5Sep2022 at 13:36:14 

     This program is part of the open-source Quantum ESPRESSO suite
     for quantum simulation of materials; please cite
         "P. Giannozzi et al., J. Phys.:Condens. Matter 21 395502 (2009);
         "P. Giannozzi et al., J. Phys.:Condens. Matter 29 465901 (2017);
          URL http://www.quantum-espresso.org", 
     in publications or presentations arising from this work. More details at
     http://www.quantum-espresso.org/quote

     Parallel version (MPI), running on     6 processors

     MPI processes distributed on     1 nodes
     R & G space division:  proc/nbgrp/npool/nimage =       6
     Reading input from distance-5.0.in

     Current dimensions of program PWSCF are:
     Max number of different atomic species (ntypx) = 10
     Max number of k-points (npk) =  40000
     Max angular momentum in pseudopotentials (lmaxx) =  3

     IMPORTANT: XC functional enforced from input :
     Exchange-correlation      = RVV10 ( 1  4 13  4 3 0)
     Any further DFT definition will be discarded
     Please, verify this is what you really want

               file H.pbe-rrkjus.UPF: wavefunction(s)  1S renormalized
               file Cu.pbe-dn-rrkjus_psl.1.0.0.UPF: wavefunction(s)  3D renormalized

     Subspace diagonalization in iterative solution of the eigenvalue problem:
     a serial algorithm will be used


     Parallelization info
     --------------------
     sticks:   dense  smooth     PW     G-vecs:    dense   smooth      PW
     Min        3051    1746    432               270999   117096   14629
     Max        3053    1747    437               271001   117099   14630
     Sum       18313   10477   2611              1626001   702581   87777



     bravais-lattice index     =            4
     lattice parameter (alat)  =      23.2937  a.u.
     unit-cell volume          =    8879.8548 (a.u.)^3
     number of atoms/cell      =           52
     number of atomic types    =            3
     number of electrons       =       209.00
     number of Kohn-Sham states=          126
     kinetic-energy cutoff     =      70.0000  Ry
     charge density cutoff     =     490.0000  Ry
     convergence threshold     =      1.0E-06
     mixing beta               =       0.7000
     number of iterations used =            8  plain     mixing
     Exchange-correlation      = RVV10 ( 1  4 13  4 3 0)

     celldm(1)=  23.293684  celldm(2)=   0.000000  celldm(3)=   0.811261
     celldm(4)=   0.000000  celldm(5)=   0.000000  celldm(6)=   0.000000

     crystal axes: (cart. coord. in units of alat)
               a(1) = (   1.000000   0.000000   0.000000 )  
               a(2) = (  -0.500000   0.866025   0.000000 )  
               a(3) = (   0.000000   0.000000   0.811261 )  

     reciprocal axes: (cart. coord. in units 2 pi/alat)
               b(1) = (  1.000000  0.577350 -0.000000 )  
               b(2) = (  0.000000  1.154701  0.000000 )  
               b(3) = (  0.000000 -0.000000  1.232649 )  


     PseudoPot. # 1 for H  read from file:
     /home/cristian/Escritorio/Proyecto_Grafeno/pseudopotenciales/H.pbe-rrkjus.UPF
     MD5 check sum: 7cc9d459525c9a0585f487a71c3c9563
     Pseudo is Ultrasoft, Zval =  1.0
     Generated by new atomic code, or converted to UPF format
     Using radial grid of 1061 points,  2 beta functions with: 
                l(1) =   0
                l(2) =   0
     Q(r) pseudized with 0 coefficients 


     PseudoPot. # 2 for C  read from file:
     /home/cristian/Escritorio/Proyecto_Grafeno/pseudopotenciales/C.pbe-n-rrkjus_psl.1.0.0.UPF
     MD5 check sum: 1fdd950c42eb37d8afe3dd2f8d12311e
     Pseudo is Ultrasoft + core correction, Zval =  4.0
     Generated using "atomic" code by A. Dal Corso v.6.3MaX
     Using radial grid of 1073 points,  4 beta functions with: 
                l(1) =   0
                l(2) =   0
                l(3) =   1
                l(4) =   1
     Q(r) pseudized with 0 coefficients 


     PseudoPot. # 3 for Cu read from file:
     /home/cristian/Escritorio/Proyecto_Grafeno/pseudopotenciales/Cu.pbe-dn-rrkjus_psl.1.0.0.UPF
     MD5 check sum: ba3d6c84e19846e79d48cdc68ff7152b
     Pseudo is Ultrasoft + core correction, Zval = 11.0
     Generated using "atomic" code by A. Dal Corso v.6.3
     Using radial grid of 1199 points,  6 beta functions with: 
                l(1) =   0
                l(2) =   0
                l(3) =   1
                l(4) =   1
                l(5) =   2
                l(6) =   2
     Q(r) pseudized with 0 coefficients 


     vdW kernel table read from file rVV10_kernel_table
     MD5 check sum: b8e2538accc0c0b3206b45ba4daaba6c

     atomic species   valence    mass     pseudopotential
        H              1.00     1.00794     H ( 1.00)
        C              4.00    12.01070     C ( 1.00)
        Cu            11.00    63.54600     Cu( 1.00)

     Starting magnetic structure 
     atomic species   magnetization
        H            0.500
        C            0.300
        Cu           0.800

      2 Sym. Ops. (no inversion) found


                                    s                        frac. trans.

      isym =  1     identity                                     

 cryst.   s( 1) = (     1          0          0      )
                  (     0          1          0      )
                  (     0          0          1      )

 cart.    s( 1) = (  1.0000000  0.0000000  0.0000000 )
                  (  0.0000000  1.0000000  0.0000000 )
                  (  0.0000000  0.0000000  1.0000000 )


      isym =  2     inv. 180 deg rotation - cryst. axis [1,1,0]  

 cryst.   s( 2) = (     0         -1          0      )
                  (    -1          0          0      )
                  (     0          0          1      )

 cart.    s( 2) = (  0.5000000 -0.8660254  0.0000000 )
                  ( -0.8660254 -0.5000000  0.0000000 )
                  (  0.0000000  0.0000000  1.0000000 )


     point group C_s (m)    
     there are  2 classes
     the character table:

       E     s    
A'     1.00  1.00
A''    1.00 -1.00

     the symmetry operations in each class and the name of the first element:

     E        1
          identity                                               
     s        2
          inv. 180 deg rotation - cryst. axis [1,1,0]            

   Cartesian axes

     site n.     atom                  positions (alat units)
         1           H   tau(   1) = (   0.2500000   0.4330127   0.4056306  )
         2           H   tau(   2) = (   0.2500000   0.4330127   0.4666433  )
         3           C   tau(   3) = (   0.0000000   0.0000000   0.0000000  )
         4           C   tau(   4) = (   0.0000000   0.1154701   0.0000000  )
         5           C   tau(   5) = (  -0.1000000   0.1732051   0.0000000  )
         6           C   tau(   6) = (  -0.1000000   0.2886751   0.0000000  )
         7           C   tau(   7) = (  -0.2000000   0.3464102   0.0000000  )
         8           C   tau(   8) = (  -0.2000000   0.4618802   0.0000000  )
         9           C   tau(   9) = (  -0.3000000   0.5196152   0.0000000  )
        10           C   tau(  10) = (  -0.3000000   0.6350853   0.0000000  )
        11           C   tau(  11) = (  -0.4000000   0.6928203   0.0000000  )
        12           C   tau(  12) = (  -0.4000000   0.8082904   0.0000000  )
        13           C   tau(  13) = (   0.2000000   0.0000000   0.0000000  )
        14           C   tau(  14) = (   0.2000000   0.1154701   0.0000000  )
        15           C   tau(  15) = (   0.1000000   0.1732051   0.0000000  )
        16           C   tau(  16) = (   0.1000000   0.2886751   0.0000000  )
        17           C   tau(  17) = (   0.0000000   0.3464102   0.0000000  )
        18           C   tau(  18) = (   0.0000000   0.4618802   0.0000000  )
        19           C   tau(  19) = (  -0.1000000   0.5196152   0.0000000  )
        20           C   tau(  20) = (  -0.1000000   0.6350853   0.0000000  )
        21           C   tau(  21) = (  -0.2000000   0.6928203   0.0000000  )
        22           C   tau(  22) = (  -0.2000000   0.8082904   0.0000000  )
        23           C   tau(  23) = (   0.4000000   0.0000000   0.0000000  )
        24           C   tau(  24) = (   0.4000000   0.1154701   0.0000000  )
        25           C   tau(  25) = (   0.3000000   0.1732051   0.0000000  )
        26           C   tau(  26) = (   0.3000000   0.2886751   0.0000000  )
        27           C   tau(  27) = (   0.2000000   0.3464102   0.0000000  )
        28           Cu  tau(  28) = (   0.2000000   0.4618802   0.0000000  )
        29           C   tau(  29) = (   0.1000000   0.5196152   0.0000000  )
        30           C   tau(  30) = (   0.1000000   0.6350853   0.0000000  )
        31           C   tau(  31) = (   0.0000000   0.6928203   0.0000000  )
        32           C   tau(  32) = (   0.0000000   0.8082904   0.0000000  )
        33           C   tau(  33) = (   0.6000000   0.0000000   0.0000000  )
        34           C   tau(  34) = (   0.6000000   0.1154701   0.0000000  )
        35           C   tau(  35) = (   0.5000000   0.1732051   0.0000000  )
        36           C   tau(  36) = (   0.5000000   0.2886751   0.0000000  )
        37           C   tau(  37) = (   0.4000000   0.3464102   0.0000000  )
        38           C   tau(  38) = (   0.4000000   0.4618802   0.0000000  )
        39           C   tau(  39) = (   0.3000000   0.5196152   0.0000000  )
        40           C   tau(  40) = (   0.3000000   0.6350853   0.0000000  )
        41           C   tau(  41) = (   0.2000000   0.6928203   0.0000000  )
        42           C   tau(  42) = (   0.2000000   0.8082904   0.0000000  )
        43           C   tau(  43) = (   0.8000000   0.0000000   0.0000000  )
        44           C   tau(  44) = (   0.8000000   0.1154701   0.0000000  )
        45           C   tau(  45) = (   0.7000000   0.1732051   0.0000000  )
        46           C   tau(  46) = (   0.7000000   0.2886751   0.0000000  )
        47           C   tau(  47) = (   0.6000000   0.3464102   0.0000000  )
        48           C   tau(  48) = (   0.6000000   0.4618802   0.0000000  )
        49           C   tau(  49) = (   0.5000000   0.5196152   0.0000000  )
        50           C   tau(  50) = (   0.5000000   0.6350853   0.0000000  )
        51           C   tau(  51) = (   0.4000000   0.6928203   0.0000000  )
        52           C   tau(  52) = (   0.4000000   0.8082904   0.0000000  )

   Crystallographic axes

     site n.     atom                  positions (cryst. coord.)
         1           H   tau(   1) = (  0.5000000  0.5000000  0.5000000  )
         2           H   tau(   2) = (  0.5000000  0.5000000  0.5752072  )
         3           C   tau(   3) = (  0.0000000  0.0000000  0.0000000  )
         4           C   tau(   4) = (  0.0666667  0.1333333  0.0000000  )
         5           C   tau(   5) = (  0.0000000  0.2000000  0.0000000  )
         6           C   tau(   6) = (  0.0666667  0.3333333  0.0000000  )
         7           C   tau(   7) = (  0.0000000  0.4000000  0.0000000  )
         8           C   tau(   8) = (  0.0666667  0.5333333  0.0000000  )
         9           C   tau(   9) = (  0.0000000  0.6000000  0.0000000  )
        10           C   tau(  10) = (  0.0666667  0.7333333  0.0000000  )
        11           C   tau(  11) = (  0.0000000  0.8000000  0.0000000  )
        12           C   tau(  12) = (  0.0666667  0.9333333  0.0000000  )
        13           C   tau(  13) = (  0.2000000  0.0000000  0.0000000  )
        14           C   tau(  14) = (  0.2666667  0.1333333  0.0000000  )
        15           C   tau(  15) = (  0.2000000  0.2000000  0.0000000  )
        16           C   tau(  16) = (  0.2666667  0.3333333  0.0000000  )
        17           C   tau(  17) = (  0.2000000  0.4000000  0.0000000  )
        18           C   tau(  18) = (  0.2666667  0.5333333  0.0000000  )
        19           C   tau(  19) = (  0.2000000  0.6000000  0.0000000  )
        20           C   tau(  20) = (  0.2666667  0.7333333  0.0000000  )
        21           C   tau(  21) = (  0.2000000  0.8000000  0.0000000  )
        22           C   tau(  22) = (  0.2666667  0.9333333  0.0000000  )
        23           C   tau(  23) = (  0.4000000  0.0000000  0.0000000  )
        24           C   tau(  24) = (  0.4666667  0.1333333  0.0000000  )
        25           C   tau(  25) = (  0.4000000  0.2000000  0.0000000  )
        26           C   tau(  26) = (  0.4666667  0.3333333  0.0000000  )
        27           C   tau(  27) = (  0.4000000  0.4000000  0.0000000  )
        28           Cu  tau(  28) = (  0.4666667  0.5333333  0.0000000  )
        29           C   tau(  29) = (  0.4000000  0.6000000  0.0000000  )
        30           C   tau(  30) = (  0.4666667  0.7333333  0.0000000  )
        31           C   tau(  31) = (  0.4000000  0.8000000  0.0000000  )
        32           C   tau(  32) = (  0.4666667  0.9333333  0.0000000  )
        33           C   tau(  33) = (  0.6000000  0.0000000  0.0000000  )
        34           C   tau(  34) = (  0.6666667  0.1333333  0.0000000  )
        35           C   tau(  35) = (  0.6000000  0.2000000  0.0000000  )
        36           C   tau(  36) = (  0.6666667  0.3333333  0.0000000  )
        37           C   tau(  37) = (  0.6000000  0.4000000  0.0000000  )
        38           C   tau(  38) = (  0.6666667  0.5333333  0.0000000  )
        39           C   tau(  39) = (  0.6000000  0.6000000  0.0000000  )
        40           C   tau(  40) = (  0.6666667  0.7333333  0.0000000  )
        41           C   tau(  41) = (  0.6000000  0.8000000  0.0000000  )
        42           C   tau(  42) = (  0.6666667  0.9333333  0.0000000  )
        43           C   tau(  43) = (  0.8000000  0.0000000  0.0000000  )
        44           C   tau(  44) = (  0.8666667  0.1333333  0.0000000  )
        45           C   tau(  45) = (  0.8000000  0.2000000  0.0000000  )
        46           C   tau(  46) = (  0.8666667  0.3333333  0.0000000  )
        47           C   tau(  47) = (  0.8000000  0.4000000  0.0000000  )
        48           C   tau(  48) = (  0.8666667  0.5333333  0.0000000  )
        49           C   tau(  49) = (  0.8000000  0.6000000  0.0000000  )
        50           C   tau(  50) = (  0.8666667  0.7333333  0.0000000  )
        51           C   tau(  51) = (  0.8000000  0.8000000  0.0000000  )
        52           C   tau(  52) = (  0.8666667  0.9333333  0.0000000  )

     number of k points=     1  Marzari-Vanderbilt smearing, width (Ry)=  0.0010
                       cart. coord. in units 2pi/alat
        k(    1) = (   0.0000000   0.0000000   0.0000000), wk =   1.0000000

                       cryst. coord.
        k(    1) = (   0.0000000   0.0000000   0.0000000), wk =   1.0000000

     Dense  grid:  1626001 G-vectors     FFT dimensions: ( 180, 180, 135)

     Smooth grid:   702581 G-vectors     FFT dimensions: ( 125, 125, 108)

     Dynamical RAM for                 wfc:      28.14 MB

     Dynamical RAM for     wfc (w. buffer):      84.42 MB

     Dynamical RAM for           str. fact:      12.41 MB

     Dynamical RAM for           local pot:       0.00 MB

     Dynamical RAM for          nlocal pot:      92.46 MB

     Dynamical RAM for                qrad:      19.73 MB

     Dynamical RAM for          rho,v,vnew:      58.92 MB

     Dynamical RAM for               rhoin:      19.64 MB

     Dynamical RAM for            rho*nmix:     132.32 MB

     Dynamical RAM for           G-vectors:      16.40 MB

     Dynamical RAM for          h,s,v(r/c):      11.63 MB

     Dynamical RAM for          <psi|beta>:       0.80 MB

     Dynamical RAM for                 psi:     112.56 MB

     Dynamical RAM for                hpsi:     112.56 MB

     Dynamical RAM for                spsi:     112.56 MB

     Dynamical RAM for      wfcinit/wfcrot:      93.45 MB

     Dynamical RAM for           addusdens:     975.89 MB

     Estimated static dynamical RAM per process >     486.96 MB

     Estimated max dynamical RAM per process >       1.43 GB

     Estimated total dynamical RAM >       8.57 GB
     Generating pointlists ...
     new r_m :   0.0252 (alat units)  0.5862 (a.u.) for type    1
     new r_m :   0.0476 (alat units)  1.1095 (a.u.) for type    2
     new r_m :   0.0476 (alat units)  1.1095 (a.u.) for type    3

     Check: negative core charge=   -0.000002

     Initial potential from superposition of free atoms

     starting charge  208.80532, renormalised to  209.00000

     negative rho (up, down):  6.834E-05 9.128E-03


---------------------------------------------------------------------------------
Carrying out rVV10 run using the following parameters:
Nqs =      20    Nr_points =    1024   r_max =   100.000
b_value =  6.30000    beta =  0.00901
     q_mesh =  0.00010000  0.00030000  0.00058939  0.00100810
               0.00161396  0.00249058  0.00375900  0.00559430
               0.00824984  0.01209221  0.01765183  0.02569619
               0.03733578  0.05417739  0.07854596  0.11380545
               0.16482331  0.23864234  0.34545298  0.50000000

Gradients computed in Reciprocal space

---------------------------------------------------------------------------------


     Starting wfcs are  207 randomized atomic wfcs

     total cpu time spent up to now is       76.7 secs

     Self-consistent Calculation

     iteration #  1     ecut=    70.00 Ry     beta= 0.70
     Davidson diagonalization with overlap
     ethr =  1.00E-02,  avg # of iterations =  2.5

     negative rho (up, down):  1.316E-04 9.756E-03

     total cpu time spent up to now is      210.0 secs

     total energy              =    -726.91778014 Ry
     Harris-Foulkes estimate   =    -734.96344807 Ry
     estimated scf accuracy    <      14.81081682 Ry

     total magnetization       =     7.00 Bohr mag/cell
     absolute magnetization    =     7.39 Bohr mag/cell

     iteration #  2     ecut=    70.00 Ry     beta= 0.70
     Davidson diagonalization with overlap
     ethr =  7.09E-03,  avg # of iterations =  4.0

     negative rho (up, down):  1.395E-04 8.406E-03

     total cpu time spent up to now is      340.4 secs

     total energy              =    -726.88080566 Ry
     Harris-Foulkes estimate   =    -745.90652841 Ry
     estimated scf accuracy    <      52.13795388 Ry

     total magnetization       =     1.29 Bohr mag/cell
     absolute magnetization    =     1.87 Bohr mag/cell

     iteration #  3     ecut=    70.00 Ry     beta= 0.70
     Davidson diagonalization with overlap
     ethr =  7.09E-03,  avg # of iterations =  4.0

     negative rho (up, down):  1.675E-04 7.373E-03

     total cpu time spent up to now is      454.6 secs

     total energy              =    -731.89508427 Ry
     Harris-Foulkes estimate   =    -736.56595310 Ry
     estimated scf accuracy    <      13.60655559 Ry

     total magnetization       =     3.00 Bohr mag/cell
     absolute magnetization    =     3.23 Bohr mag/cell

     iteration #  4     ecut=    70.00 Ry     beta= 0.70
     Davidson diagonalization with overlap
     ethr =  6.51E-03,  avg # of iterations =  3.0

     negative rho (up, down):  2.107E-04 5.561E-03

     total cpu time spent up to now is      555.1 secs

     total energy              =    -733.78260140 Ry
     Harris-Foulkes estimate   =    -734.87738761 Ry
     estimated scf accuracy    <       4.78442141 Ry

     total magnetization       =     3.00 Bohr mag/cell
     absolute magnetization    =     3.16 Bohr mag/cell

     iteration #  5     ecut=    70.00 Ry     beta= 0.70
     Davidson diagonalization with overlap
     ethr =  2.29E-03,  avg # of iterations =  2.0

     negative rho (up, down):  2.404E-04 8.462E-03

     total cpu time spent up to now is      655.3 secs

     total energy              =    -734.29787785 Ry
     Harris-Foulkes estimate   =    -735.10041386 Ry
     estimated scf accuracy    <       3.84094791 Ry

     total magnetization       =     1.00 Bohr mag/cell
     absolute magnetization    =     1.48 Bohr mag/cell

     iteration #  6     ecut=    70.00 Ry     beta= 0.70
     Davidson diagonalization with overlap
     ethr =  1.84E-03,  avg # of iterations =  2.0

     negative rho (up, down):  3.012E-04 1.437E-02

     total cpu time spent up to now is      754.4 secs

     total energy              =    -734.69975954 Ry
     Harris-Foulkes estimate   =    -734.76534677 Ry
     estimated scf accuracy    <       0.18221514 Ry

     total magnetization       =     1.00 Bohr mag/cell
     absolute magnetization    =     1.36 Bohr mag/cell

     iteration #  7     ecut=    70.00 Ry     beta= 0.70
     Davidson diagonalization with overlap
     ethr =  8.72E-05,  avg # of iterations =  8.5

     negative rho (up, down):  4.136E-04 1.183E-02

     total cpu time spent up to now is      882.4 secs

     total energy              =    -734.71956477 Ry
     Harris-Foulkes estimate   =    -734.79905635 Ry
     estimated scf accuracy    <       0.27893686 Ry

     total magnetization       =     1.00 Bohr mag/cell
     absolute magnetization    =     1.25 Bohr mag/cell

     iteration #  8     ecut=    70.00 Ry     beta= 0.70
     Davidson diagonalization with overlap
     ethr =  8.72E-05,  avg # of iterations =  4.0

     negative rho (up, down):  4.963E-04 5.508E-03

     total cpu time spent up to now is      986.8 secs

     total energy              =    -734.74780570 Ry
     Harris-Foulkes estimate   =    -734.76462986 Ry
     estimated scf accuracy    <       0.06178711 Ry

     total magnetization       =     1.00 Bohr mag/cell
     absolute magnetization    =     1.20 Bohr mag/cell

     iteration #  9     ecut=    70.00 Ry     beta= 0.70
     Davidson diagonalization with overlap
     ethr =  2.96E-05,  avg # of iterations =  3.0

     negative rho (up, down):  5.514E-04 2.884E-03

     total cpu time spent up to now is     1090.8 secs

     total energy              =    -734.75634344 Ry
     Harris-Foulkes estimate   =    -734.76084349 Ry
     estimated scf accuracy    <       0.04860415 Ry

     total magnetization       =     1.00 Bohr mag/cell
     absolute magnetization    =     1.16 Bohr mag/cell

     iteration # 10     ecut=    70.00 Ry     beta= 0.70
     Davidson diagonalization with overlap
     ethr =  2.33E-05,  avg # of iterations =  1.0

     negative rho (up, down):  5.766E-04 2.264E-03

     total cpu time spent up to now is     1187.1 secs

     total energy              =    -734.75720810 Ry
     Harris-Foulkes estimate   =    -734.75849102 Ry
     estimated scf accuracy    <       0.00427264 Ry

     total magnetization       =     1.00 Bohr mag/cell
     absolute magnetization    =     1.13 Bohr mag/cell

     iteration # 11     ecut=    70.00 Ry     beta= 0.70
     Davidson diagonalization with overlap
     ethr =  2.04E-06,  avg # of iterations =  6.5

     negative rho (up, down):  5.795E-04 2.197E-03

     total cpu time spent up to now is     1303.5 secs

     total energy              =    -734.75791202 Ry
     Harris-Foulkes estimate   =    -734.75826333 Ry
     estimated scf accuracy    <       0.00281773 Ry

     total magnetization       =     1.00 Bohr mag/cell
     absolute magnetization    =     1.10 Bohr mag/cell

     iteration # 12     ecut=    70.00 Ry     beta= 0.70
     Davidson diagonalization with overlap
     ethr =  1.35E-06,  avg # of iterations =  2.0

     negative rho (up, down):  5.777E-04 1.781E-03

     total cpu time spent up to now is     1400.4 secs

     total energy              =    -734.75813640 Ry
     Harris-Foulkes estimate   =    -734.75816149 Ry
     estimated scf accuracy    <       0.00031709 Ry

     total magnetization       =     1.00 Bohr mag/cell
     absolute magnetization    =     1.09 Bohr mag/cell

     iteration # 13     ecut=    70.00 Ry     beta= 0.70
     Davidson diagonalization with overlap
     ethr =  1.52E-07,  avg # of iterations =  2.0

     negative rho (up, down):  5.730E-04 1.548E-03

     total cpu time spent up to now is     1500.1 secs

     total energy              =    -734.75817282 Ry
     Harris-Foulkes estimate   =    -734.75817488 Ry
     estimated scf accuracy    <       0.00003078 Ry

     total magnetization       =     1.00 Bohr mag/cell
     absolute magnetization    =     1.08 Bohr mag/cell

     iteration # 14     ecut=    70.00 Ry     beta= 0.70
     Davidson diagonalization with overlap
     ethr =  1.47E-08,  avg # of iterations =  3.0

     negative rho (up, down):  5.702E-04 1.509E-03

     total cpu time spent up to now is     1617.2 secs

     total energy              =    -734.75818676 Ry
     Harris-Foulkes estimate   =    -734.75818633 Ry
     estimated scf accuracy    <       0.00026578 Ry

     total magnetization       =     1.00 Bohr mag/cell
     absolute magnetization    =     1.07 Bohr mag/cell

     iteration # 15     ecut=    70.00 Ry     beta= 0.70
     Davidson diagonalization with overlap
     ethr =  1.47E-08,  avg # of iterations =  1.5

     negative rho (up, down):  5.702E-04 1.525E-03

     total cpu time spent up to now is     1713.9 secs

     total energy              =    -734.75818565 Ry
     Harris-Foulkes estimate   =    -734.75818877 Ry
     estimated scf accuracy    <       0.00025597 Ry

     total magnetization       =     1.00 Bohr mag/cell
     absolute magnetization    =     1.07 Bohr mag/cell

     iteration # 16     ecut=    70.00 Ry     beta= 0.70
     Davidson diagonalization with overlap
     ethr =  1.47E-08,  avg # of iterations =  1.5

     negative rho (up, down):  5.682E-04 1.476E-03

     total cpu time spent up to now is     1811.0 secs

     total energy              =    -734.75818759 Ry
     Harris-Foulkes estimate   =    -734.75818790 Ry
     estimated scf accuracy    <       0.00006975 Ry

     total magnetization       =     1.00 Bohr mag/cell
     absolute magnetization    =     1.07 Bohr mag/cell

     iteration # 17     ecut=    70.00 Ry     beta= 0.70
     Davidson diagonalization with overlap
     ethr =  1.47E-08,  avg # of iterations =  2.0

     negative rho (up, down):  5.669E-04 1.481E-03

     total cpu time spent up to now is     1909.5 secs

     total energy              =    -734.75818924 Ry
     Harris-Foulkes estimate   =    -734.75818965 Ry
     estimated scf accuracy    <       0.00004572 Ry

     total magnetization       =     1.00 Bohr mag/cell
     absolute magnetization    =     1.07 Bohr mag/cell

     iteration # 18     ecut=    70.00 Ry     beta= 0.70
     Davidson diagonalization with overlap
     ethr =  1.47E-08,  avg # of iterations =  2.0

     negative rho (up, down):  5.658E-04 1.494E-03

     total cpu time spent up to now is     2007.0 secs

     total energy              =    -734.75819036 Ry
     Harris-Foulkes estimate   =    -734.75819076 Ry
     estimated scf accuracy    <       0.00004867 Ry

     total magnetization       =     1.00 Bohr mag/cell
     absolute magnetization    =     1.07 Bohr mag/cell

     iteration # 19     ecut=    70.00 Ry     beta= 0.70
     Davidson diagonalization with overlap
     ethr =  1.47E-08,  avg # of iterations =  1.5

     negative rho (up, down):  5.660E-04 1.487E-03

     total cpu time spent up to now is     2104.7 secs

     total energy              =    -734.75819207 Ry
     Harris-Foulkes estimate   =    -734.75819236 Ry
     estimated scf accuracy    <       0.00003737 Ry

     total magnetization       =     1.00 Bohr mag/cell
     absolute magnetization    =     1.06 Bohr mag/cell

     iteration # 20     ecut=    70.00 Ry     beta= 0.70
     Davidson diagonalization with overlap
     ethr =  1.47E-08,  avg # of iterations =  1.0

     negative rho (up, down):  5.659E-04 1.490E-03

     total cpu time spent up to now is     2201.0 secs

     total energy              =    -734.75819184 Ry
     Harris-Foulkes estimate   =    -734.75819247 Ry
     estimated scf accuracy    <       0.00002485 Ry

     total magnetization       =     1.00 Bohr mag/cell
     absolute magnetization    =     1.06 Bohr mag/cell

     iteration # 21     ecut=    70.00 Ry     beta= 0.70
     Davidson diagonalization with overlap
     ethr =  1.19E-08,  avg # of iterations =  1.5

     negative rho (up, down):  5.661E-04 1.473E-03

     total cpu time spent up to now is     2301.0 secs

     total energy              =    -734.75819235 Ry
     Harris-Foulkes estimate   =    -734.75819252 Ry
     estimated scf accuracy    <       0.00000427 Ry

     total magnetization       =     1.00 Bohr mag/cell
     absolute magnetization    =     1.06 Bohr mag/cell

     iteration # 22     ecut=    70.00 Ry     beta= 0.70
     Davidson diagonalization with overlap
     ethr =  2.04E-09,  avg # of iterations =  3.0

     negative rho (up, down):  5.660E-04 1.482E-03

     total cpu time spent up to now is     2418.7 secs

     total energy              =    -734.75819257 Ry
     Harris-Foulkes estimate   =    -734.75819281 Ry
     estimated scf accuracy    <       0.00000359 Ry

     total magnetization       =     1.00 Bohr mag/cell
     absolute magnetization    =     1.06 Bohr mag/cell

     iteration # 23     ecut=    70.00 Ry     beta= 0.70
     Davidson diagonalization with overlap
     ethr =  1.72E-09,  avg # of iterations =  2.0

     negative rho (up, down):  5.662E-04 1.480E-03

     total cpu time spent up to now is     2528.6 secs

     total energy              =    -734.75819276 Ry
     Harris-Foulkes estimate   =    -734.75819280 Ry
     estimated scf accuracy    <       0.00000121 Ry

     total magnetization       =     1.00 Bohr mag/cell
     absolute magnetization    =     1.06 Bohr mag/cell

     iteration # 24     ecut=    70.00 Ry     beta= 0.70
     Davidson diagonalization with overlap
     ethr =  5.77E-10,  avg # of iterations =  2.0

     negative rho (up, down):  5.662E-04 1.475E-03

     Magnetic moment per site:
     atom:    1    charge:    0.2116    magn:   -0.0000    constr:    0.0000
     atom:    2    charge:    0.2111    magn:   -0.0000    constr:    0.0000
     atom:    3    charge:    1.7158    magn:    0.0016    constr:    0.0000
     atom:    4    charge:    1.7153    magn:    0.0017    constr:    0.0000
     atom:    5    charge:    1.7170    magn:    0.0000    constr:    0.0000
     atom:    6    charge:    1.7146    magn:   -0.0001    constr:    0.0000
     atom:    7    charge:    1.7170    magn:    0.0000    constr:    0.0000
     atom:    8    charge:    1.7153    magn:    0.0017    constr:    0.0000
     atom:    9    charge:    1.7158    magn:    0.0016    constr:    0.0000
     atom:   10    charge:    1.7170    magn:   -0.0009    constr:    0.0000
     atom:   11    charge:    1.7160    magn:    0.0006    constr:    0.0000
     atom:   12    charge:    1.7170    magn:   -0.0009    constr:    0.0000
     atom:   13    charge:    1.7160    magn:    0.0006    constr:    0.0000
     atom:   14    charge:    1.7169    magn:   -0.0010    constr:    0.0000
     atom:   15    charge:    1.7130    magn:    0.0073    constr:    0.0000
     atom:   16    charge:    1.7108    magn:    0.0132    constr:    0.0000
     atom:   17    charge:    1.7214    magn:    0.0030    constr:    0.0000
     atom:   18    charge:    1.7108    magn:    0.0132    constr:    0.0000
     atom:   19    charge:    1.7130    magn:    0.0072    constr:    0.0000
     atom:   20    charge:    1.7169    magn:   -0.0010    constr:    0.0000
     atom:   21    charge:    1.7160    magn:    0.0005    constr:    0.0000
     atom:   22    charge:    1.7170    magn:   -0.0009    constr:    0.0000
     atom:   23    charge:    1.7158    magn:    0.0016    constr:    0.0000
     atom:   24    charge:    1.7153    magn:    0.0017    constr:    0.0000
     atom:   25    charge:    1.7130    magn:    0.0072    constr:    0.0000
     atom:   26    charge:    1.7108    magn:    0.0131    constr:    0.0000
     atom:   27    charge:    1.8173    magn:    0.0798    constr:    0.0000
     atom:   28    charge:    7.0284    magn:    0.1548    constr:    0.0000
     atom:   29    charge:    1.8173    magn:    0.0793    constr:    0.0000
     atom:   30    charge:    1.7108    magn:    0.0132    constr:    0.0000
     atom:   31    charge:    1.7130    magn:    0.0072    constr:    0.0000
     atom:   32    charge:    1.7153    magn:    0.0017    constr:    0.0000
     atom:   33    charge:    1.7170    magn:    0.0000    constr:    0.0000
     atom:   34    charge:    1.7153    magn:    0.0000    constr:    0.0000
     atom:   35    charge:    1.7170    magn:    0.0000    constr:    0.0000
     atom:   36    charge:    1.7146    magn:   -0.0001    constr:    0.0000
     atom:   37    charge:    1.7214    magn:    0.0031    constr:    0.0000
     atom:   38    charge:    1.7108    magn:    0.0131    constr:    0.0000
     atom:   39    charge:    1.8173    magn:    0.0798    constr:    0.0000
     atom:   40    charge:    1.7108    magn:    0.0132    constr:    0.0000
     atom:   41    charge:    1.7214    magn:    0.0030    constr:    0.0000
     atom:   42    charge:    1.7146    magn:   -0.0001    constr:    0.0000
     atom:   43    charge:    1.7170    magn:    0.0000    constr:    0.0000
     atom:   44    charge:    1.7153    magn:    0.0000    constr:    0.0000
     atom:   45    charge:    1.7211    magn:   -0.0007    constr:    0.0000
     atom:   46    charge:    1.7153    magn:    0.0000    constr:    0.0000
     atom:   47    charge:    1.7170    magn:    0.0000    constr:    0.0000
     atom:   48    charge:    1.7153    magn:    0.0017    constr:    0.0000
     atom:   49    charge:    1.7130    magn:    0.0072    constr:    0.0000
     atom:   50    charge:    1.7169    magn:   -0.0010    constr:    0.0000
     atom:   51    charge:    1.7130    magn:    0.0073    constr:    0.0000
     atom:   52    charge:    1.7153    magn:    0.0017    constr:    0.0000

     total cpu time spent up to now is     2636.8 secs

     End of self-consistent calculation

 ------ SPIN UP ------------


          k = 0.0000 0.0000 0.0000 ( 87777 PWs)   bands (ev):

   -19.8484 -19.0064 -19.0062 -18.9108 -18.9108 -18.8489 -18.7734 -17.1771
   -17.1768 -17.1392 -17.0955 -17.0951 -16.8170 -16.3362 -16.3360 -16.1903
   -16.1901 -16.1679 -15.7769 -14.4335 -14.4331 -14.1373 -14.0415 -14.0413
   -13.5846 -13.1742 -13.1741 -13.0874 -12.9451 -12.9449 -12.6399 -12.3253
   -12.3253 -11.7219 -11.6162 -11.6162 -11.1952 -10.9468 -10.9465  -9.5326
    -9.3717  -9.3716  -9.2502  -9.2405  -9.2405  -9.2312  -9.1211  -9.1206
    -9.0687  -9.0686  -8.9700  -8.7249  -8.7248  -7.9642  -7.9040  -7.8467
    -7.6716  -7.6715  -7.5416  -7.5415  -6.9475  -6.8485  -6.8483  -6.8256
    -6.7968  -6.7232  -6.7224  -6.7201  -6.6262  -6.6259  -6.5814  -6.5747
    -6.5747  -6.5470  -6.5290  -6.4058  -6.4057  -5.6206  -5.6206  -5.0361
    -5.0257  -4.9640  -4.8931  -4.8931  -4.7693  -4.7325  -4.7323  -4.5484
    -4.5483  -4.4769  -3.8589  -3.8588  -3.8255  -3.8254  -3.7896  -3.6473
    -3.6472  -3.4153  -1.8904  -1.8335  -1.8333  -1.7409  -1.7405  -1.2307
    -0.8479  -0.8478   0.9041   0.9408   0.9411   1.0875   1.0875   1.4894
     2.4748   2.7867   2.7871   2.8309   2.9240   2.9243   3.3620   3.5990
     3.6036   3.7288   3.7325   3.7511   3.7570   3.8801

     occupation numbers 
     1.0000   1.0000   1.0000   1.0000   1.0000   1.0000   1.0000   1.0000
     1.0000   1.0000   1.0000   1.0000   1.0000   1.0000   1.0000   1.0000
     1.0000   1.0000   1.0000   1.0000   1.0000   1.0000   1.0000   1.0000
     1.0000   1.0000   1.0000   1.0000   1.0000   1.0000   1.0000   1.0000
     1.0000   1.0000   1.0000   1.0000   1.0000   1.0000   1.0000   1.0000
     1.0000   1.0000   1.0000   1.0000   1.0000   1.0000   1.0000   1.0000
     1.0000   1.0000   1.0000   1.0000   1.0000   1.0000   1.0000   1.0000
     1.0000   1.0000   1.0000   1.0000   1.0000   1.0000   1.0000   1.0000
     1.0000   1.0000   1.0000   1.0000   1.0000   1.0000   1.0000   1.0000
     1.0000   1.0000   1.0000   1.0000   1.0000   1.0000   1.0000   1.0000
     1.0000   1.0000   1.0000   1.0000   1.0000   1.0000   1.0000   1.0000
     1.0000   1.0000   1.0000   1.0000   1.0000   1.0000   1.0000   1.0000
     1.0000   1.0000   1.0000   1.0000   1.0000   1.0000   1.0000   1.0000
     0.5017   0.4983   0.0000   0.0000   0.0000   0.0000   0.0000   0.0000
     0.0000   0.0000   0.0000   0.0000   0.0000   0.0000   0.0000   0.0000
     0.0000   0.0000   0.0000   0.0000   0.0000   0.0000

 ------ SPIN DOWN ----------


          k = 0.0000 0.0000 0.0000 ( 87777 PWs)   bands (ev):

   -19.8233 -18.9739 -18.9736 -18.9040 -18.9040 -18.8458 -18.6981 -17.1373
   -17.1371 -17.1232 -17.0738 -17.0733 -16.7835 -16.2989 -16.2986 -16.1687
   -16.1684 -16.1610 -15.7013 -14.3433 -14.3431 -14.1131 -14.0333 -14.0331
   -13.5422 -13.1487 -13.1487 -13.0744 -12.9085 -12.9081 -12.5751 -12.2142
   -12.2139 -11.7022 -11.5817 -11.5815 -11.0899 -10.8167 -10.8166  -9.4917
    -9.3523  -9.3521  -9.2426  -9.2317  -9.2317  -9.2188  -9.0122  -9.0122
    -8.9496  -8.9484  -8.8452  -8.6836  -8.6833  -7.9539  -7.8798  -7.8248
    -7.6227  -7.6226  -7.5240  -7.5239  -6.8976  -6.8474  -6.8472  -6.7962
    -6.7850  -6.7099  -6.7093  -6.6832  -6.6042  -6.6040  -6.5736  -6.5708
    -6.5707  -6.5466  -6.5228  -6.3650  -6.3649  -5.5931  -5.5929  -5.0171
    -4.9542  -4.8732  -4.8732  -4.8122  -4.7644  -4.7315  -4.7312  -4.5387
    -4.5385  -4.4607  -3.8547  -3.8547  -3.8000  -3.7999  -3.7904  -3.6289
    -3.6288  -3.3773  -1.8866  -1.8314  -1.8312  -1.7188  -1.7185  -1.1944
    -0.4475  -0.4447   0.9072   0.9442   0.9445   1.1107   1.1108   1.5015
     2.4761   2.7889   2.7893   2.8320   2.9513   2.9518   3.3697   3.5999
     3.6049   3.7282   3.7317   3.7501   3.7639   3.8923

     occupation numbers 
     1.0000   1.0000   1.0000   1.0000   1.0000   1.0000   1.0000   1.0000
     1.0000   1.0000   1.0000   1.0000   1.0000   1.0000   1.0000   1.0000
     1.0000   1.0000   1.0000   1.0000   1.0000   1.0000   1.0000   1.0000
     1.0000   1.0000   1.0000   1.0000   1.0000   1.0000   1.0000   1.0000
     1.0000   1.0000   1.0000   1.0000   1.0000   1.0000   1.0000   1.0000
     1.0000   1.0000   1.0000   1.0000   1.0000   1.0000   1.0000   1.0000
     1.0000   1.0000   1.0000   1.0000   1.0000   1.0000   1.0000   1.0000
     1.0000   1.0000   1.0000   1.0000   1.0000   1.0000   1.0000   1.0000
     1.0000   1.0000   1.0000   1.0000   1.0000   1.0000   1.0000   1.0000
     1.0000   1.0000   1.0000   1.0000   1.0000   1.0000   1.0000   1.0000
     1.0000   1.0000   1.0000   1.0000   1.0000   1.0000   1.0000   1.0000
     1.0000   1.0000   1.0000   1.0000   1.0000   1.0000   1.0000   1.0000
     1.0000   1.0000   1.0000   1.0000   1.0000   1.0000   1.0000   1.0000
     0.0000   0.0000   0.0000   0.0000   0.0000   0.0000   0.0000   0.0000
     0.0000   0.0000   0.0000   0.0000   0.0000   0.0000   0.0000   0.0000
     0.0000   0.0000   0.0000   0.0000   0.0000   0.0000

     the Fermi energy is    -0.8460 ev

!    total energy              =    -734.75819278 Ry
     Harris-Foulkes estimate   =    -734.75819283 Ry
     estimated scf accuracy    <       0.00000012 Ry

     The total energy is the sum of the following terms:

     one-electron contribution =   -2475.10233400 Ry
     hartree contribution      =    1293.22537097 Ry
     xc contribution           =    -275.91893656 Ry
     ewald contribution        =     723.03803498 Ry
     smearing contrib. (-TS)   =      -0.00032818 Ry

     total magnetization       =     1.00 Bohr mag/cell
     absolute magnetization    =     1.06 Bohr mag/cell

     convergence has been achieved in  24 iterations

     Writing output data file cobre-bridge2-5.0.save/

     init_run     :     74.25s CPU     75.61s WALL (       1 calls)
     electrons    :   2517.19s CPU   2560.23s WALL (       1 calls)

     Called by init_run:
     wfcinit      :     43.76s CPU     44.05s WALL (       1 calls)
     wfcinit:atom :      0.05s CPU      0.08s WALL (       2 calls)
     wfcinit:wfcr :     43.37s CPU     43.56s WALL (       2 calls)
     potinit      :     12.56s CPU     12.99s WALL (       1 calls)
     hinit0       :      8.81s CPU      8.83s WALL (       1 calls)

     Called by electrons:
     c_bands      :   1577.38s CPU   1585.40s WALL (      24 calls)
     sum_band     :    547.54s CPU    561.64s WALL (      24 calls)
     v_of_rho     :    190.57s CPU    198.93s WALL (      25 calls)
     v_h          :      1.97s CPU      2.03s WALL (      25 calls)
     v_xc         :    188.60s CPU    196.90s WALL (      25 calls)
     newd         :    199.35s CPU    212.51s WALL (      25 calls)
     mix_rho      :     11.43s CPU     11.61s WALL (      24 calls)

     Called by c_bands:
     init_us_2    :      4.76s CPU      4.79s WALL (      98 calls)
     cegterg      :   1566.38s CPU   1574.35s WALL (      48 calls)

     Called by sum_band:
     sum_band:bec :      0.04s CPU      0.04s WALL (      48 calls)
     addusdens    :    346.55s CPU    359.54s WALL (      24 calls)

     Called by *egterg:
     h_psi        :    834.11s CPU    839.54s WALL (     181 calls)
     s_psi        :    280.75s CPU    280.94s WALL (     181 calls)
     g_psi        :      0.83s CPU      0.83s WALL (     131 calls)
     cdiaghg      :     11.60s CPU     11.60s WALL (     179 calls)
     cegterg:over :    191.78s CPU    191.92s WALL (     131 calls)
     cegterg:upda :    114.83s CPU    115.49s WALL (     131 calls)
     cegterg:last :     84.95s CPU     85.00s WALL (      48 calls)

     Called by h_psi:
     h_psi:pot    :    833.16s CPU    837.55s WALL (     181 calls)
     h_psi:calbec :    280.44s CPU    280.62s WALL (     181 calls)
     vloc_psi     :    271.32s CPU    275.40s WALL (     181 calls)
     add_vuspsi   :    281.40s CPU    281.53s WALL (     181 calls)

     General routines
     calbec       :    402.43s CPU    402.66s WALL (     229 calls)
     fft          :    110.71s CPU    114.08s WALL (    1869 calls)
     ffts         :      1.85s CPU      1.90s WALL (      98 calls)
     fftw         :    286.60s CPU    290.95s WALL (   33968 calls)
     interpolate  :      4.57s CPU      4.70s WALL (      50 calls)

     Parallel routines
     fft_scatt_xy :     73.08s CPU     73.83s WALL (   35935 calls)
     fft_scatt_yz :    130.03s CPU    135.82s WALL (   35935 calls)

     PWSCF        :  43m12.86s CPU  43m57.62s WALL


   This run was terminated on:  14:20:11   5Sep2022            

=------------------------------------------------------------------------------=
   JOB DONE.
=------------------------------------------------------------------------------=
