
     Program PWSCF v.6.4.1 starts on  5Sep2022 at 15:52: 7 

     This program is part of the open-source Quantum ESPRESSO suite
     for quantum simulation of materials; please cite
         "P. Giannozzi et al., J. Phys.:Condens. Matter 21 395502 (2009);
         "P. Giannozzi et al., J. Phys.:Condens. Matter 29 465901 (2017);
          URL http://www.quantum-espresso.org", 
     in publications or presentations arising from this work. More details at
     http://www.quantum-espresso.org/quote

     Parallel version (MPI), running on     6 processors

     MPI processes distributed on     1 nodes
     R & G space division:  proc/nbgrp/npool/nimage =       6
     Reading input from distance-3.5.in

     Current dimensions of program PWSCF are:
     Max number of different atomic species (ntypx) = 10
     Max number of k-points (npk) =  40000
     Max angular momentum in pseudopotentials (lmaxx) =  3

     IMPORTANT: XC functional enforced from input :
     Exchange-correlation      = RVV10 ( 1  4 13  4 3 0)
     Any further DFT definition will be discarded
     Please, verify this is what you really want

               file H.pbe-rrkjus.UPF: wavefunction(s)  1S renormalized
               file Cu.pbe-dn-rrkjus_psl.1.0.0.UPF: wavefunction(s)  3D renormalized

     Subspace diagonalization in iterative solution of the eigenvalue problem:
     a serial algorithm will be used


     Parallelization info
     --------------------
     sticks:   dense  smooth     PW     G-vecs:    dense   smooth      PW
     Min        3051    1746    432               270999   117096   14629
     Max        3053    1747    437               271001   117099   14630
     Sum       18313   10477   2611              1626001   702581   87777



     bravais-lattice index     =            4
     lattice parameter (alat)  =      23.2937  a.u.
     unit-cell volume          =    8879.8548 (a.u.)^3
     number of atoms/cell      =           52
     number of atomic types    =            3
     number of electrons       =       209.00
     number of Kohn-Sham states=          126
     kinetic-energy cutoff     =      70.0000  Ry
     charge density cutoff     =     490.0000  Ry
     convergence threshold     =      1.0E-06
     mixing beta               =       0.7000
     number of iterations used =            8  plain     mixing
     Exchange-correlation      = RVV10 ( 1  4 13  4 3 0)

     celldm(1)=  23.293684  celldm(2)=   0.000000  celldm(3)=   0.811261
     celldm(4)=   0.000000  celldm(5)=   0.000000  celldm(6)=   0.000000

     crystal axes: (cart. coord. in units of alat)
               a(1) = (   1.000000   0.000000   0.000000 )  
               a(2) = (  -0.500000   0.866025   0.000000 )  
               a(3) = (   0.000000   0.000000   0.811261 )  

     reciprocal axes: (cart. coord. in units 2 pi/alat)
               b(1) = (  1.000000  0.577350 -0.000000 )  
               b(2) = (  0.000000  1.154701  0.000000 )  
               b(3) = (  0.000000 -0.000000  1.232649 )  


     PseudoPot. # 1 for H  read from file:
     /home/cristian/Escritorio/Proyecto_Grafeno/pseudopotenciales/H.pbe-rrkjus.UPF
     MD5 check sum: 7cc9d459525c9a0585f487a71c3c9563
     Pseudo is Ultrasoft, Zval =  1.0
     Generated by new atomic code, or converted to UPF format
     Using radial grid of 1061 points,  2 beta functions with: 
                l(1) =   0
                l(2) =   0
     Q(r) pseudized with 0 coefficients 


     PseudoPot. # 2 for C  read from file:
     /home/cristian/Escritorio/Proyecto_Grafeno/pseudopotenciales/C.pbe-n-rrkjus_psl.1.0.0.UPF
     MD5 check sum: 1fdd950c42eb37d8afe3dd2f8d12311e
     Pseudo is Ultrasoft + core correction, Zval =  4.0
     Generated using "atomic" code by A. Dal Corso v.6.3MaX
     Using radial grid of 1073 points,  4 beta functions with: 
                l(1) =   0
                l(2) =   0
                l(3) =   1
                l(4) =   1
     Q(r) pseudized with 0 coefficients 


     PseudoPot. # 3 for Cu read from file:
     /home/cristian/Escritorio/Proyecto_Grafeno/pseudopotenciales/Cu.pbe-dn-rrkjus_psl.1.0.0.UPF
     MD5 check sum: ba3d6c84e19846e79d48cdc68ff7152b
     Pseudo is Ultrasoft + core correction, Zval = 11.0
     Generated using "atomic" code by A. Dal Corso v.6.3
     Using radial grid of 1199 points,  6 beta functions with: 
                l(1) =   0
                l(2) =   0
                l(3) =   1
                l(4) =   1
                l(5) =   2
                l(6) =   2
     Q(r) pseudized with 0 coefficients 


     vdW kernel table read from file rVV10_kernel_table
     MD5 check sum: b8e2538accc0c0b3206b45ba4daaba6c

     atomic species   valence    mass     pseudopotential
        H              1.00     1.00794     H ( 1.00)
        C              4.00    12.01070     C ( 1.00)
        Cu            11.00    63.54600     Cu( 1.00)

     Starting magnetic structure 
     atomic species   magnetization
        H            0.500
        C            0.300
        Cu           0.800

      2 Sym. Ops. (no inversion) found


                                    s                        frac. trans.

      isym =  1     identity                                     

 cryst.   s( 1) = (     1          0          0      )
                  (     0          1          0      )
                  (     0          0          1      )

 cart.    s( 1) = (  1.0000000  0.0000000  0.0000000 )
                  (  0.0000000  1.0000000  0.0000000 )
                  (  0.0000000  0.0000000  1.0000000 )


      isym =  2     inv. 180 deg rotation - cryst. axis [1,1,0]  

 cryst.   s( 2) = (     0         -1          0      )
                  (    -1          0          0      )
                  (     0          0          1      )

 cart.    s( 2) = (  0.5000000 -0.8660254  0.0000000 )
                  ( -0.8660254 -0.5000000  0.0000000 )
                  (  0.0000000  0.0000000  1.0000000 )


     point group C_s (m)    
     there are  2 classes
     the character table:

       E     s    
A'     1.00  1.00
A''    1.00 -1.00

     the symmetry operations in each class and the name of the first element:

     E        1
          identity                                               
     s        2
          inv. 180 deg rotation - cryst. axis [1,1,0]            

   Cartesian axes

     site n.     atom                  positions (alat units)
         1           H   tau(   1) = (   0.2500000   0.4330127   0.2839414  )
         2           H   tau(   2) = (   0.2500000   0.4330127   0.3449541  )
         3           C   tau(   3) = (   0.0000000   0.0000000   0.0000000  )
         4           C   tau(   4) = (   0.0000000   0.1154701   0.0000000  )
         5           C   tau(   5) = (  -0.1000000   0.1732051   0.0000000  )
         6           C   tau(   6) = (  -0.1000000   0.2886751   0.0000000  )
         7           C   tau(   7) = (  -0.2000000   0.3464102   0.0000000  )
         8           C   tau(   8) = (  -0.2000000   0.4618802   0.0000000  )
         9           C   tau(   9) = (  -0.3000000   0.5196152   0.0000000  )
        10           C   tau(  10) = (  -0.3000000   0.6350853   0.0000000  )
        11           C   tau(  11) = (  -0.4000000   0.6928203   0.0000000  )
        12           C   tau(  12) = (  -0.4000000   0.8082904   0.0000000  )
        13           C   tau(  13) = (   0.2000000   0.0000000   0.0000000  )
        14           C   tau(  14) = (   0.2000000   0.1154701   0.0000000  )
        15           C   tau(  15) = (   0.1000000   0.1732051   0.0000000  )
        16           C   tau(  16) = (   0.1000000   0.2886751   0.0000000  )
        17           C   tau(  17) = (   0.0000000   0.3464102   0.0000000  )
        18           C   tau(  18) = (   0.0000000   0.4618802   0.0000000  )
        19           C   tau(  19) = (  -0.1000000   0.5196152   0.0000000  )
        20           C   tau(  20) = (  -0.1000000   0.6350853   0.0000000  )
        21           C   tau(  21) = (  -0.2000000   0.6928203   0.0000000  )
        22           C   tau(  22) = (  -0.2000000   0.8082904   0.0000000  )
        23           C   tau(  23) = (   0.4000000   0.0000000   0.0000000  )
        24           C   tau(  24) = (   0.4000000   0.1154701   0.0000000  )
        25           C   tau(  25) = (   0.3000000   0.1732051   0.0000000  )
        26           C   tau(  26) = (   0.3000000   0.2886751   0.0000000  )
        27           C   tau(  27) = (   0.2000000   0.3464102   0.0000000  )
        28           Cu  tau(  28) = (   0.2000000   0.4618802   0.0000000  )
        29           C   tau(  29) = (   0.1000000   0.5196152   0.0000000  )
        30           C   tau(  30) = (   0.1000000   0.6350853   0.0000000  )
        31           C   tau(  31) = (   0.0000000   0.6928203   0.0000000  )
        32           C   tau(  32) = (   0.0000000   0.8082904   0.0000000  )
        33           C   tau(  33) = (   0.6000000   0.0000000   0.0000000  )
        34           C   tau(  34) = (   0.6000000   0.1154701   0.0000000  )
        35           C   tau(  35) = (   0.5000000   0.1732051   0.0000000  )
        36           C   tau(  36) = (   0.5000000   0.2886751   0.0000000  )
        37           C   tau(  37) = (   0.4000000   0.3464102   0.0000000  )
        38           C   tau(  38) = (   0.4000000   0.4618802   0.0000000  )
        39           C   tau(  39) = (   0.3000000   0.5196152   0.0000000  )
        40           C   tau(  40) = (   0.3000000   0.6350853   0.0000000  )
        41           C   tau(  41) = (   0.2000000   0.6928203   0.0000000  )
        42           C   tau(  42) = (   0.2000000   0.8082904   0.0000000  )
        43           C   tau(  43) = (   0.8000000   0.0000000   0.0000000  )
        44           C   tau(  44) = (   0.8000000   0.1154701   0.0000000  )
        45           C   tau(  45) = (   0.7000000   0.1732051   0.0000000  )
        46           C   tau(  46) = (   0.7000000   0.2886751   0.0000000  )
        47           C   tau(  47) = (   0.6000000   0.3464102   0.0000000  )
        48           C   tau(  48) = (   0.6000000   0.4618802   0.0000000  )
        49           C   tau(  49) = (   0.5000000   0.5196152   0.0000000  )
        50           C   tau(  50) = (   0.5000000   0.6350853   0.0000000  )
        51           C   tau(  51) = (   0.4000000   0.6928203   0.0000000  )
        52           C   tau(  52) = (   0.4000000   0.8082904   0.0000000  )

   Crystallographic axes

     site n.     atom                  positions (cryst. coord.)
         1           H   tau(   1) = (  0.5000000  0.5000000  0.3500000  )
         2           H   tau(   2) = (  0.5000000  0.5000000  0.4252072  )
         3           C   tau(   3) = (  0.0000000  0.0000000  0.0000000  )
         4           C   tau(   4) = (  0.0666667  0.1333333  0.0000000  )
         5           C   tau(   5) = (  0.0000000  0.2000000  0.0000000  )
         6           C   tau(   6) = (  0.0666667  0.3333333  0.0000000  )
         7           C   tau(   7) = (  0.0000000  0.4000000  0.0000000  )
         8           C   tau(   8) = (  0.0666667  0.5333333  0.0000000  )
         9           C   tau(   9) = (  0.0000000  0.6000000  0.0000000  )
        10           C   tau(  10) = (  0.0666667  0.7333333  0.0000000  )
        11           C   tau(  11) = (  0.0000000  0.8000000  0.0000000  )
        12           C   tau(  12) = (  0.0666667  0.9333333  0.0000000  )
        13           C   tau(  13) = (  0.2000000  0.0000000  0.0000000  )
        14           C   tau(  14) = (  0.2666667  0.1333333  0.0000000  )
        15           C   tau(  15) = (  0.2000000  0.2000000  0.0000000  )
        16           C   tau(  16) = (  0.2666667  0.3333333  0.0000000  )
        17           C   tau(  17) = (  0.2000000  0.4000000  0.0000000  )
        18           C   tau(  18) = (  0.2666667  0.5333333  0.0000000  )
        19           C   tau(  19) = (  0.2000000  0.6000000  0.0000000  )
        20           C   tau(  20) = (  0.2666667  0.7333333  0.0000000  )
        21           C   tau(  21) = (  0.2000000  0.8000000  0.0000000  )
        22           C   tau(  22) = (  0.2666667  0.9333333  0.0000000  )
        23           C   tau(  23) = (  0.4000000  0.0000000  0.0000000  )
        24           C   tau(  24) = (  0.4666667  0.1333333  0.0000000  )
        25           C   tau(  25) = (  0.4000000  0.2000000  0.0000000  )
        26           C   tau(  26) = (  0.4666667  0.3333333  0.0000000  )
        27           C   tau(  27) = (  0.4000000  0.4000000  0.0000000  )
        28           Cu  tau(  28) = (  0.4666667  0.5333333  0.0000000  )
        29           C   tau(  29) = (  0.4000000  0.6000000  0.0000000  )
        30           C   tau(  30) = (  0.4666667  0.7333333  0.0000000  )
        31           C   tau(  31) = (  0.4000000  0.8000000  0.0000000  )
        32           C   tau(  32) = (  0.4666667  0.9333333  0.0000000  )
        33           C   tau(  33) = (  0.6000000  0.0000000  0.0000000  )
        34           C   tau(  34) = (  0.6666667  0.1333333  0.0000000  )
        35           C   tau(  35) = (  0.6000000  0.2000000  0.0000000  )
        36           C   tau(  36) = (  0.6666667  0.3333333  0.0000000  )
        37           C   tau(  37) = (  0.6000000  0.4000000  0.0000000  )
        38           C   tau(  38) = (  0.6666667  0.5333333  0.0000000  )
        39           C   tau(  39) = (  0.6000000  0.6000000  0.0000000  )
        40           C   tau(  40) = (  0.6666667  0.7333333  0.0000000  )
        41           C   tau(  41) = (  0.6000000  0.8000000  0.0000000  )
        42           C   tau(  42) = (  0.6666667  0.9333333  0.0000000  )
        43           C   tau(  43) = (  0.8000000  0.0000000  0.0000000  )
        44           C   tau(  44) = (  0.8666667  0.1333333  0.0000000  )
        45           C   tau(  45) = (  0.8000000  0.2000000  0.0000000  )
        46           C   tau(  46) = (  0.8666667  0.3333333  0.0000000  )
        47           C   tau(  47) = (  0.8000000  0.4000000  0.0000000  )
        48           C   tau(  48) = (  0.8666667  0.5333333  0.0000000  )
        49           C   tau(  49) = (  0.8000000  0.6000000  0.0000000  )
        50           C   tau(  50) = (  0.8666667  0.7333333  0.0000000  )
        51           C   tau(  51) = (  0.8000000  0.8000000  0.0000000  )
        52           C   tau(  52) = (  0.8666667  0.9333333  0.0000000  )

     number of k points=     1  Marzari-Vanderbilt smearing, width (Ry)=  0.0010
                       cart. coord. in units 2pi/alat
        k(    1) = (   0.0000000   0.0000000   0.0000000), wk =   1.0000000

                       cryst. coord.
        k(    1) = (   0.0000000   0.0000000   0.0000000), wk =   1.0000000

     Dense  grid:  1626001 G-vectors     FFT dimensions: ( 180, 180, 135)

     Smooth grid:   702581 G-vectors     FFT dimensions: ( 125, 125, 108)

     Dynamical RAM for                 wfc:      28.14 MB

     Dynamical RAM for     wfc (w. buffer):      84.42 MB

     Dynamical RAM for           str. fact:      12.41 MB

     Dynamical RAM for           local pot:       0.00 MB

     Dynamical RAM for          nlocal pot:      92.46 MB

     Dynamical RAM for                qrad:      19.73 MB

     Dynamical RAM for          rho,v,vnew:      58.92 MB

     Dynamical RAM for               rhoin:      19.64 MB

     Dynamical RAM for            rho*nmix:     132.32 MB

     Dynamical RAM for           G-vectors:      16.40 MB

     Dynamical RAM for          h,s,v(r/c):      11.63 MB

     Dynamical RAM for          <psi|beta>:       0.80 MB

     Dynamical RAM for                 psi:     112.56 MB

     Dynamical RAM for                hpsi:     112.56 MB

     Dynamical RAM for                spsi:     112.56 MB

     Dynamical RAM for      wfcinit/wfcrot:      93.45 MB

     Dynamical RAM for           addusdens:     975.89 MB

     Estimated static dynamical RAM per process >     486.96 MB

     Estimated max dynamical RAM per process >       1.43 GB

     Estimated total dynamical RAM >       8.57 GB
     Generating pointlists ...
     new r_m :   0.0252 (alat units)  0.5862 (a.u.) for type    1
     new r_m :   0.0476 (alat units)  1.1095 (a.u.) for type    2
     new r_m :   0.0476 (alat units)  1.1095 (a.u.) for type    3

     Check: negative core charge=   -0.000002

     Initial potential from superposition of free atoms

     starting charge  208.80532, renormalised to  209.00000

     negative rho (up, down):  6.110E-05 9.868E-03


---------------------------------------------------------------------------------
Carrying out rVV10 run using the following parameters:
Nqs =      20    Nr_points =    1024   r_max =   100.000
b_value =  6.30000    beta =  0.00901
     q_mesh =  0.00010000  0.00030000  0.00058939  0.00100810
               0.00161396  0.00249058  0.00375900  0.00559430
               0.00824984  0.01209221  0.01765183  0.02569619
               0.03733578  0.05417739  0.07854596  0.11380545
               0.16482331  0.23864234  0.34545298  0.50000000

Gradients computed in Reciprocal space

---------------------------------------------------------------------------------


     Starting wfcs are  207 randomized atomic wfcs

     total cpu time spent up to now is       79.1 secs

     Self-consistent Calculation

     iteration #  1     ecut=    70.00 Ry     beta= 0.70
     Davidson diagonalization with overlap
     ethr =  1.00E-02,  avg # of iterations =  2.0

     negative rho (up, down):  1.345E-04 1.007E-02

     total cpu time spent up to now is      212.3 secs

     total energy              =    -727.10426336 Ry
     Harris-Foulkes estimate   =    -734.92977999 Ry
     estimated scf accuracy    <      14.57275912 Ry

     total magnetization       =     7.00 Bohr mag/cell
     absolute magnetization    =     7.39 Bohr mag/cell

     iteration #  2     ecut=    70.00 Ry     beta= 0.70
     Davidson diagonalization with overlap
     ethr =  6.97E-03,  avg # of iterations =  4.0

     negative rho (up, down):  1.463E-04 8.889E-03

     total cpu time spent up to now is      361.3 secs

     total energy              =    -727.96999599 Ry
     Harris-Foulkes estimate   =    -745.49864177 Ry
     estimated scf accuracy    <      46.37580295 Ry

     total magnetization       =     3.00 Bohr mag/cell
     absolute magnetization    =     3.26 Bohr mag/cell

     iteration #  3     ecut=    70.00 Ry     beta= 0.70
     Davidson diagonalization with overlap
     ethr =  6.97E-03,  avg # of iterations =  4.0

     negative rho (up, down):  1.765E-04 7.888E-03

     total cpu time spent up to now is      491.5 secs

     total energy              =    -732.07258936 Ry
     Harris-Foulkes estimate   =    -736.24798826 Ry
     estimated scf accuracy    <      11.80119024 Ry

     total magnetization       =     2.96 Bohr mag/cell
     absolute magnetization    =     3.19 Bohr mag/cell

     iteration #  4     ecut=    70.00 Ry     beta= 0.70
     Davidson diagonalization with overlap
     ethr =  5.65E-03,  avg # of iterations =  3.0

     negative rho (up, down):  2.245E-04 6.411E-03

     total cpu time spent up to now is      608.8 secs

     total energy              =    -733.73396162 Ry
     Harris-Foulkes estimate   =    -735.00061598 Ry
     estimated scf accuracy    <       5.48806990 Ry

     total magnetization       =     3.00 Bohr mag/cell
     absolute magnetization    =     3.18 Bohr mag/cell

     iteration #  5     ecut=    70.00 Ry     beta= 0.70
     Davidson diagonalization with overlap
     ethr =  2.63E-03,  avg # of iterations =  2.0

     negative rho (up, down):  2.561E-04 9.297E-03

     total cpu time spent up to now is      722.5 secs

     total energy              =    -734.31663022 Ry
     Harris-Foulkes estimate   =    -735.08437672 Ry
     estimated scf accuracy    <       3.66598264 Ry

     total magnetization       =     1.00 Bohr mag/cell
     absolute magnetization    =     1.44 Bohr mag/cell

     iteration #  6     ecut=    70.00 Ry     beta= 0.70
     Davidson diagonalization with overlap
     ethr =  1.75E-03,  avg # of iterations =  2.0

     negative rho (up, down):  3.265E-04 1.527E-02

     total cpu time spent up to now is      818.7 secs

     total energy              =    -734.69875463 Ry
     Harris-Foulkes estimate   =    -734.76644663 Ry
     estimated scf accuracy    <       0.18823405 Ry

     total magnetization       =     1.00 Bohr mag/cell
     absolute magnetization    =     1.37 Bohr mag/cell

     iteration #  7     ecut=    70.00 Ry     beta= 0.70
     Davidson diagonalization with overlap
     ethr =  9.01E-05,  avg # of iterations =  7.5

     negative rho (up, down):  4.540E-04 1.085E-02

     total cpu time spent up to now is      953.9 secs

     total energy              =    -734.72076055 Ry
     Harris-Foulkes estimate   =    -734.80528777 Ry
     estimated scf accuracy    <       0.30426123 Ry

     total magnetization       =     1.00 Bohr mag/cell
     absolute magnetization    =     1.25 Bohr mag/cell

     iteration #  8     ecut=    70.00 Ry     beta= 0.70
     Davidson diagonalization with overlap
     ethr =  9.01E-05,  avg # of iterations =  3.5

     negative rho (up, down):  5.256E-04 4.995E-03

     total cpu time spent up to now is     1069.0 secs

     total energy              =    -734.75049797 Ry
     Harris-Foulkes estimate   =    -734.76376475 Ry
     estimated scf accuracy    <       0.04938896 Ry

     total magnetization       =     1.00 Bohr mag/cell
     absolute magnetization    =     1.21 Bohr mag/cell

     iteration #  9     ecut=    70.00 Ry     beta= 0.70
     Davidson diagonalization with overlap
     c_bands:  1 eigenvalues not converged
     ethr =  2.36E-05,  avg # of iterations = 12.0

     negative rho (up, down):  5.731E-04 3.082E-03

     total cpu time spent up to now is     1192.6 secs

     total energy              =    -734.75784260 Ry
     Harris-Foulkes estimate   =    -734.76146675 Ry
     estimated scf accuracy    <       0.04642600 Ry

     total magnetization       =     1.00 Bohr mag/cell
     absolute magnetization    =     1.17 Bohr mag/cell

     iteration # 10     ecut=    70.00 Ry     beta= 0.70
     Davidson diagonalization with overlap
     ethr =  2.22E-05,  avg # of iterations =  1.0

     negative rho (up, down):  5.956E-04 2.346E-03

     total cpu time spent up to now is     1297.4 secs

     total energy              =    -734.75846902 Ry
     Harris-Foulkes estimate   =    -734.75957911 Ry
     estimated scf accuracy    <       0.00351297 Ry

     total magnetization       =     1.00 Bohr mag/cell
     absolute magnetization    =     1.13 Bohr mag/cell

     iteration # 11     ecut=    70.00 Ry     beta= 0.70
     Davidson diagonalization with overlap
     ethr =  1.68E-06,  avg # of iterations =  4.5

     negative rho (up, down):  5.985E-04 2.173E-03

     total cpu time spent up to now is     1423.0 secs

     total energy              =    -734.75917254 Ry
     Harris-Foulkes estimate   =    -734.75941477 Ry
     estimated scf accuracy    <       0.00200173 Ry

     total magnetization       =     1.00 Bohr mag/cell
     absolute magnetization    =     1.11 Bohr mag/cell

     iteration # 12     ecut=    70.00 Ry     beta= 0.70
     Davidson diagonalization with overlap
     ethr =  9.58E-07,  avg # of iterations =  2.0

     negative rho (up, down):  5.960E-04 1.788E-03

     total cpu time spent up to now is     1532.7 secs

     total energy              =    -734.75935707 Ry
     Harris-Foulkes estimate   =    -734.75937277 Ry
     estimated scf accuracy    <       0.00030372 Ry

     total magnetization       =     1.00 Bohr mag/cell
     absolute magnetization    =     1.10 Bohr mag/cell

     iteration # 13     ecut=    70.00 Ry     beta= 0.70
     Davidson diagonalization with overlap
     ethr =  1.45E-07,  avg # of iterations =  2.5

     negative rho (up, down):  5.906E-04 1.540E-03

     total cpu time spent up to now is     1643.6 secs

     total energy              =    -734.75939565 Ry
     Harris-Foulkes estimate   =    -734.75939252 Ry
     estimated scf accuracy    <       0.00011894 Ry

     total magnetization       =     1.00 Bohr mag/cell
     absolute magnetization    =     1.09 Bohr mag/cell

     iteration # 14     ecut=    70.00 Ry     beta= 0.70
     Davidson diagonalization with overlap
     ethr =  5.69E-08,  avg # of iterations =  2.0

     negative rho (up, down):  5.888E-04 1.548E-03

     total cpu time spent up to now is     1752.7 secs

     total energy              =    -734.75940452 Ry
     Harris-Foulkes estimate   =    -734.75940483 Ry
     estimated scf accuracy    <       0.00034386 Ry

     total magnetization       =     1.00 Bohr mag/cell
     absolute magnetization    =     1.08 Bohr mag/cell

     iteration # 15     ecut=    70.00 Ry     beta= 0.70
     Davidson diagonalization with overlap
     ethr =  5.69E-08,  avg # of iterations =  1.0

     negative rho (up, down):  5.880E-04 1.532E-03

     total cpu time spent up to now is     1861.0 secs

     total energy              =    -734.75940232 Ry
     Harris-Foulkes estimate   =    -734.75940660 Ry
     estimated scf accuracy    <       0.00026079 Ry

     total magnetization       =     1.00 Bohr mag/cell
     absolute magnetization    =     1.08 Bohr mag/cell

     iteration # 16     ecut=    70.00 Ry     beta= 0.70
     Davidson diagonalization with overlap
     ethr =  5.69E-08,  avg # of iterations =  1.5

     negative rho (up, down):  5.865E-04 1.512E-03

     total cpu time spent up to now is     1968.9 secs

     total energy              =    -734.75940659 Ry
     Harris-Foulkes estimate   =    -734.75940707 Ry
     estimated scf accuracy    <       0.00003512 Ry

     total magnetization       =     1.00 Bohr mag/cell
     absolute magnetization    =     1.07 Bohr mag/cell

     iteration # 17     ecut=    70.00 Ry     beta= 0.70
     Davidson diagonalization with overlap
     ethr =  1.68E-08,  avg # of iterations =  2.0

     negative rho (up, down):  5.857E-04 1.509E-03

     total cpu time spent up to now is     2079.5 secs

     total energy              =    -734.75940889 Ry
     Harris-Foulkes estimate   =    -734.75940897 Ry
     estimated scf accuracy    <       0.00003398 Ry

     total magnetization       =     1.00 Bohr mag/cell
     absolute magnetization    =     1.07 Bohr mag/cell

     iteration # 18     ecut=    70.00 Ry     beta= 0.70
     Davidson diagonalization with overlap
     ethr =  1.63E-08,  avg # of iterations =  1.5

     negative rho (up, down):  5.848E-04 1.514E-03

     total cpu time spent up to now is     2189.1 secs

     total energy              =    -734.75940968 Ry
     Harris-Foulkes estimate   =    -734.75941037 Ry
     estimated scf accuracy    <       0.00005096 Ry

     total magnetization       =     1.00 Bohr mag/cell
     absolute magnetization    =     1.07 Bohr mag/cell

     iteration # 19     ecut=    70.00 Ry     beta= 0.70
     Davidson diagonalization with overlap
     ethr =  1.63E-08,  avg # of iterations =  1.5

     negative rho (up, down):  5.852E-04 1.505E-03

     total cpu time spent up to now is     6342.1 secs

     total energy              =    -734.75941178 Ry
     Harris-Foulkes estimate   =    -734.75941188 Ry
     estimated scf accuracy    <       0.00003296 Ry

     total magnetization       =     1.00 Bohr mag/cell
     absolute magnetization    =     1.06 Bohr mag/cell

     iteration # 20     ecut=    70.00 Ry     beta= 0.70
     Davidson diagonalization with overlap
     ethr =  1.58E-08,  avg # of iterations =  1.0

     negative rho (up, down):  5.852E-04 1.508E-03

     total cpu time spent up to now is     6438.1 secs

     total energy              =    -734.75941128 Ry
     Harris-Foulkes estimate   =    -734.75941212 Ry
     estimated scf accuracy    <       0.00003191 Ry

     total magnetization       =     1.00 Bohr mag/cell
     absolute magnetization    =     1.06 Bohr mag/cell

     iteration # 21     ecut=    70.00 Ry     beta= 0.70
     Davidson diagonalization with overlap
     ethr =  1.53E-08,  avg # of iterations =  1.5

     negative rho (up, down):  5.854E-04 1.495E-03

     total cpu time spent up to now is     6531.3 secs

     total energy              =    -734.75941114 Ry
     Harris-Foulkes estimate   =    -734.75941212 Ry
     estimated scf accuracy    <       0.00000621 Ry

     total magnetization       =     1.00 Bohr mag/cell
     absolute magnetization    =     1.06 Bohr mag/cell

     iteration # 22     ecut=    70.00 Ry     beta= 0.70
     Davidson diagonalization with overlap
     ethr =  2.97E-09,  avg # of iterations =  3.0

     negative rho (up, down):  5.855E-04 1.494E-03

     Magnetic moment per site:
     atom:    1    charge:    0.2108    magn:    0.0000    constr:    0.0000
     atom:    2    charge:    0.2114    magn:   -0.0000    constr:    0.0000
     atom:    3    charge:    1.7158    magn:    0.0016    constr:    0.0000
     atom:    4    charge:    1.7153    magn:    0.0018    constr:    0.0000
     atom:    5    charge:    1.7170    magn:    0.0000    constr:    0.0000
     atom:    6    charge:    1.7146    magn:   -0.0001    constr:    0.0000
     atom:    7    charge:    1.7170    magn:    0.0000    constr:    0.0000
     atom:    8    charge:    1.7153    magn:    0.0017    constr:    0.0000
     atom:    9    charge:    1.7158    magn:    0.0016    constr:    0.0000
     atom:   10    charge:    1.7170    magn:   -0.0009    constr:    0.0000
     atom:   11    charge:    1.7160    magn:    0.0005    constr:    0.0000
     atom:   12    charge:    1.7170    magn:   -0.0009    constr:    0.0000
     atom:   13    charge:    1.7160    magn:    0.0005    constr:    0.0000
     atom:   14    charge:    1.7169    magn:   -0.0010    constr:    0.0000
     atom:   15    charge:    1.7130    magn:    0.0073    constr:    0.0000
     atom:   16    charge:    1.7108    magn:    0.0132    constr:    0.0000
     atom:   17    charge:    1.7214    magn:    0.0030    constr:    0.0000
     atom:   18    charge:    1.7108    magn:    0.0132    constr:    0.0000
     atom:   19    charge:    1.7130    magn:    0.0072    constr:    0.0000
     atom:   20    charge:    1.7168    magn:   -0.0010    constr:    0.0000
     atom:   21    charge:    1.7160    magn:    0.0005    constr:    0.0000
     atom:   22    charge:    1.7170    magn:   -0.0009    constr:    0.0000
     atom:   23    charge:    1.7158    magn:    0.0016    constr:    0.0000
     atom:   24    charge:    1.7153    magn:    0.0017    constr:    0.0000
     atom:   25    charge:    1.7130    magn:    0.0072    constr:    0.0000
     atom:   26    charge:    1.7108    magn:    0.0130    constr:    0.0000
     atom:   27    charge:    1.8173    magn:    0.0799    constr:    0.0000
     atom:   28    charge:    7.0283    magn:    0.1548    constr:    0.0000
     atom:   29    charge:    1.8171    magn:    0.0790    constr:    0.0000
     atom:   30    charge:    1.7108    magn:    0.0132    constr:    0.0000
     atom:   31    charge:    1.7130    magn:    0.0072    constr:    0.0000
     atom:   32    charge:    1.7153    magn:    0.0017    constr:    0.0000
     atom:   33    charge:    1.7170    magn:    0.0000    constr:    0.0000
     atom:   34    charge:    1.7153    magn:    0.0000    constr:    0.0000
     atom:   35    charge:    1.7169    magn:    0.0000    constr:    0.0000
     atom:   36    charge:    1.7146    magn:   -0.0001    constr:    0.0000
     atom:   37    charge:    1.7214    magn:    0.0031    constr:    0.0000
     atom:   38    charge:    1.7108    magn:    0.0130    constr:    0.0000
     atom:   39    charge:    1.8173    magn:    0.0799    constr:    0.0000
     atom:   40    charge:    1.7108    magn:    0.0132    constr:    0.0000
     atom:   41    charge:    1.7214    magn:    0.0030    constr:    0.0000
     atom:   42    charge:    1.7146    magn:   -0.0001    constr:    0.0000
     atom:   43    charge:    1.7170    magn:    0.0000    constr:    0.0000
     atom:   44    charge:    1.7153    magn:    0.0000    constr:    0.0000
     atom:   45    charge:    1.7211    magn:   -0.0007    constr:    0.0000
     atom:   46    charge:    1.7153    magn:    0.0000    constr:    0.0000
     atom:   47    charge:    1.7169    magn:    0.0000    constr:    0.0000
     atom:   48    charge:    1.7153    magn:    0.0017    constr:    0.0000
     atom:   49    charge:    1.7130    magn:    0.0072    constr:    0.0000
     atom:   50    charge:    1.7169    magn:   -0.0010    constr:    0.0000
     atom:   51    charge:    1.7130    magn:    0.0073    constr:    0.0000
     atom:   52    charge:    1.7153    magn:    0.0018    constr:    0.0000

     total cpu time spent up to now is     6638.3 secs

     End of self-consistent calculation

 ------ SPIN UP ------------


          k = 0.0000 0.0000 0.0000 ( 87777 PWs)   bands (ev):

   -19.8487 -19.0067 -19.0065 -18.9112 -18.9112 -18.8494 -18.7738 -17.1774
   -17.1771 -17.1395 -17.0959 -17.0955 -16.8175 -16.3366 -16.3363 -16.1907
   -16.1904 -16.1684 -15.7773 -14.4339 -14.4334 -14.1376 -14.0418 -14.0417
   -13.5851 -13.1745 -13.1745 -13.0877 -12.9455 -12.9453 -12.6402 -12.3257
   -12.3256 -11.7223 -11.6166 -11.6165 -11.1956 -10.9471 -10.9468  -9.5329
    -9.3721  -9.3719  -9.2506  -9.2410  -9.2409  -9.2317  -9.1218  -9.1211
    -9.0691  -9.0690  -8.9704  -8.7253  -8.7251  -7.9654  -7.9044  -7.8472
    -7.6720  -7.6718  -7.5420  -7.5419  -6.9512  -6.8488  -6.8487  -6.8259
    -6.7997  -6.7431  -6.7226  -6.7225  -6.6266  -6.6263  -6.5818  -6.5751
    -6.5751  -6.5371  -6.5293  -6.4063  -6.4061  -5.6210  -5.6210  -5.0365
    -5.0246  -4.9644  -4.8936  -4.8935  -4.7695  -4.7328  -4.7325  -4.5487
    -4.5487  -4.4769  -3.8591  -3.8590  -3.8259  -3.8259  -3.7899  -3.6477
    -3.6475  -3.4154  -1.8906  -1.8337  -1.8336  -1.7415  -1.7408  -1.2317
    -0.8484  -0.8482   0.9039   0.9404   0.9409   1.0869   1.0869   1.4882
     2.4829   2.7861   2.7867   2.8305   2.9228   2.9236   3.3721   3.5973
     3.6025   3.7285   3.7319   3.7508   3.8410   3.9585

     occupation numbers 
     1.0000   1.0000   1.0000   1.0000   1.0000   1.0000   1.0000   1.0000
     1.0000   1.0000   1.0000   1.0000   1.0000   1.0000   1.0000   1.0000
     1.0000   1.0000   1.0000   1.0000   1.0000   1.0000   1.0000   1.0000
     1.0000   1.0000   1.0000   1.0000   1.0000   1.0000   1.0000   1.0000
     1.0000   1.0000   1.0000   1.0000   1.0000   1.0000   1.0000   1.0000
     1.0000   1.0000   1.0000   1.0000   1.0000   1.0000   1.0000   1.0000
     1.0000   1.0000   1.0000   1.0000   1.0000   1.0000   1.0000   1.0000
     1.0000   1.0000   1.0000   1.0000   1.0000   1.0000   1.0000   1.0000
     1.0000   1.0000   1.0000   1.0000   1.0000   1.0000   1.0000   1.0000
     1.0000   1.0000   1.0000   1.0000   1.0000   1.0000   1.0000   1.0000
     1.0000   1.0000   1.0000   1.0000   1.0000   1.0000   1.0000   1.0000
     1.0000   1.0000   1.0000   1.0000   1.0000   1.0000   1.0000   1.0000
     1.0000   1.0000   1.0000   1.0000   1.0000   1.0000   1.0000   1.0000
     0.5033   0.4967   0.0000   0.0000   0.0000   0.0000   0.0000   0.0000
     0.0000   0.0000   0.0000   0.0000   0.0000   0.0000   0.0000   0.0000
     0.0000   0.0000   0.0000   0.0000   0.0000   0.0000

 ------ SPIN DOWN ----------


          k = 0.0000 0.0000 0.0000 ( 87777 PWs)   bands (ev):

   -19.8236 -18.9742 -18.9738 -18.9044 -18.9043 -18.8463 -18.6984 -17.1377
   -17.1374 -17.1235 -17.0742 -17.0736 -16.7839 -16.2993 -16.2988 -16.1692
   -16.1687 -16.1614 -15.7017 -14.3436 -14.3433 -14.1134 -14.0337 -14.0336
   -13.5427 -13.1491 -13.1490 -13.0747 -12.9089 -12.9085 -12.5754 -12.2146
   -12.2142 -11.7026 -11.5821 -11.5818 -11.0903 -10.8170 -10.8168  -9.4919
    -9.3527  -9.3524  -9.2430  -9.2322  -9.2321  -9.2193  -9.0126  -9.0125
    -8.9504  -8.9487  -8.8457  -8.6840  -8.6836  -7.9551  -7.8802  -7.8254
    -7.6231  -7.6230  -7.5244  -7.5243  -6.9018  -6.8477  -6.8475  -6.7977
    -6.7854  -6.7171  -6.7094  -6.7045  -6.6046  -6.6043  -6.5741  -6.5711
    -6.5711  -6.5313  -6.5232  -6.3654  -6.3653  -5.5936  -5.5934  -5.0175
    -4.9546  -4.8736  -4.8736  -4.8113  -4.7645  -4.7316  -4.7314  -4.5389
    -4.5389  -4.4607  -3.8550  -3.8549  -3.8005  -3.8004  -3.7907  -3.6293
    -3.6291  -3.3774  -1.8867  -1.8317  -1.8315  -1.7193  -1.7186  -1.1954
    -0.4485  -0.4448   0.9071   0.9438   0.9443   1.1102   1.1103   1.5003
     2.4839   2.7883   2.7890   2.8316   2.9500   2.9511   3.3804   3.5984
     3.6039   3.7278   3.7312   3.7497   3.8465   3.9727

     occupation numbers 
     1.0000   1.0000   1.0000   1.0000   1.0000   1.0000   1.0000   1.0000
     1.0000   1.0000   1.0000   1.0000   1.0000   1.0000   1.0000   1.0000
     1.0000   1.0000   1.0000   1.0000   1.0000   1.0000   1.0000   1.0000
     1.0000   1.0000   1.0000   1.0000   1.0000   1.0000   1.0000   1.0000
     1.0000   1.0000   1.0000   1.0000   1.0000   1.0000   1.0000   1.0000
     1.0000   1.0000   1.0000   1.0000   1.0000   1.0000   1.0000   1.0000
     1.0000   1.0000   1.0000   1.0000   1.0000   1.0000   1.0000   1.0000
     1.0000   1.0000   1.0000   1.0000   1.0000   1.0000   1.0000   1.0000
     1.0000   1.0000   1.0000   1.0000   1.0000   1.0000   1.0000   1.0000
     1.0000   1.0000   1.0000   1.0000   1.0000   1.0000   1.0000   1.0000
     1.0000   1.0000   1.0000   1.0000   1.0000   1.0000   1.0000   1.0000
     1.0000   1.0000   1.0000   1.0000   1.0000   1.0000   1.0000   1.0000
     1.0000   1.0000   1.0000   1.0000   1.0000   1.0000   1.0000   1.0000
     0.0000   0.0000   0.0000   0.0000   0.0000   0.0000   0.0000   0.0000
     0.0000   0.0000   0.0000   0.0000   0.0000   0.0000   0.0000   0.0000
     0.0000   0.0000   0.0000   0.0000   0.0000   0.0000

     the Fermi energy is    -0.8464 ev

!    total energy              =    -734.75941229 Ry
     Harris-Foulkes estimate   =    -734.75941243 Ry
     estimated scf accuracy    <       0.00000020 Ry

     The total energy is the sum of the following terms:

     one-electron contribution =   -2480.20417742 Ry
     hartree contribution      =    1295.77057951 Ry
     xc contribution           =    -275.91930822 Ry
     ewald contribution        =     725.59382200 Ry
     smearing contrib. (-TS)   =      -0.00032817 Ry

     total magnetization       =     1.00 Bohr mag/cell
     absolute magnetization    =     1.06 Bohr mag/cell

     convergence has been achieved in  22 iterations

     Writing output data file cobre-bridge2-3.5.save/

     init_run     :     76.62s CPU     77.99s WALL (       1 calls)
     electrons    :   2469.88s CPU   6559.41s WALL (       1 calls)

     Called by init_run:
     wfcinit      :     43.88s CPU     44.18s WALL (       1 calls)
     wfcinit:atom :      0.04s CPU      0.09s WALL (       2 calls)
     wfcinit:wfcr :     43.49s CPU     43.67s WALL (       2 calls)
     potinit      :     13.26s CPU     13.70s WALL (       1 calls)
     hinit0       :     10.36s CPU     10.38s WALL (       1 calls)

     Called by electrons:
     c_bands      :   1548.25s CPU   1556.22s WALL (      22 calls)
     sum_band     :    543.86s CPU   4605.25s WALL (      22 calls)
     v_of_rho     :    183.06s CPU    191.53s WALL (      23 calls)
     v_h          :      1.98s CPU      2.04s WALL (      23 calls)
     v_xc         :    181.08s CPU    189.48s WALL (      23 calls)
     newd         :    192.68s CPU    204.98s WALL (      23 calls)
     mix_rho      :     11.30s CPU     11.47s WALL (      22 calls)

     Called by c_bands:
     init_us_2    :      4.59s CPU      4.63s WALL (      90 calls)
     cegterg      :   1537.01s CPU   1544.95s WALL (      44 calls)

     Called by sum_band:
     sum_band:bec :      0.04s CPU      0.04s WALL (      44 calls)
     addusdens    :    344.06s CPU   4404.21s WALL (      22 calls)

     Called by *egterg:
     h_psi        :    824.15s CPU    829.58s WALL (     176 calls)
     s_psi        :    274.56s CPU    274.68s WALL (     176 calls)
     g_psi        :      0.81s CPU      0.81s WALL (     130 calls)
     cdiaghg      :     11.68s CPU     11.68s WALL (     174 calls)
     cegterg:over :    186.11s CPU    186.21s WALL (     130 calls)
     cegterg:upda :    111.42s CPU    112.12s WALL (     130 calls)
     cegterg:last :     81.49s CPU     81.51s WALL (      44 calls)

     Called by h_psi:
     h_psi:pot    :    823.17s CPU    827.60s WALL (     176 calls)
     h_psi:calbec :    273.43s CPU    273.55s WALL (     176 calls)
     vloc_psi     :    273.61s CPU    277.83s WALL (     176 calls)
     add_vuspsi   :    276.14s CPU    276.22s WALL (     176 calls)

     General routines
     calbec       :    393.46s CPU    393.62s WALL (     220 calls)
     fft          :    107.91s CPU    111.38s WALL (    1719 calls)
     ffts         :      1.98s CPU      2.05s WALL (      90 calls)
     fftw         :    288.83s CPU    293.37s WALL (   31172 calls)
     interpolate  :      4.50s CPU      4.61s WALL (      46 calls)

     Parallel routines
     fft_scatt_xy :     74.94s CPU     75.61s WALL (   32981 calls)
     fft_scatt_yz :    126.11s CPU    132.37s WALL (   32981 calls)

     PWSCF        :  42m27.78s CPU      1h50m WALL


   This run was terminated on:  17:42:46   5Sep2022            

=------------------------------------------------------------------------------=
   JOB DONE.
=------------------------------------------------------------------------------=
