
     Program PWSCF v.6.4.1 starts on  3Sep2022 at 13: 7:25 

     This program is part of the open-source Quantum ESPRESSO suite
     for quantum simulation of materials; please cite
         "P. Giannozzi et al., J. Phys.:Condens. Matter 21 395502 (2009);
         "P. Giannozzi et al., J. Phys.:Condens. Matter 29 465901 (2017);
          URL http://www.quantum-espresso.org", 
     in publications or presentations arising from this work. More details at
     http://www.quantum-espresso.org/quote

     Parallel version (MPI), running on     6 processors

     MPI processes distributed on     1 nodes
     R & G space division:  proc/nbgrp/npool/nimage =       6
     Reading input from distance-3.5.in

     Current dimensions of program PWSCF are:
     Max number of different atomic species (ntypx) = 10
     Max number of k-points (npk) =  40000
     Max angular momentum in pseudopotentials (lmaxx) =  3

     IMPORTANT: XC functional enforced from input :
     Exchange-correlation      = RVV10 ( 1  4 13  4 3 0)
     Any further DFT definition will be discarded
     Please, verify this is what you really want

               file H.pbe-rrkjus.UPF: wavefunction(s)  1S renormalized
               file Mn.pbe-spn-rrkjus_psl.0.3.1.UPF: wavefunction(s)  3D renormalized

     Subspace diagonalization in iterative solution of the eigenvalue problem:
     a serial algorithm will be used


     Parallelization info
     --------------------
     sticks:   dense  smooth     PW     G-vecs:    dense   smooth      PW
     Min        3051    1746    432               270999   117096   14629
     Max        3053    1747    437               271001   117099   14630
     Sum       18313   10477   2611              1626001   702581   87777



     bravais-lattice index     =            4
     lattice parameter (alat)  =      23.2937  a.u.
     unit-cell volume          =    8879.8548 (a.u.)^3
     number of atoms/cell      =           52
     number of atomic types    =            3
     number of electrons       =       213.00
     number of Kohn-Sham states=          128
     kinetic-energy cutoff     =      70.0000  Ry
     charge density cutoff     =     490.0000  Ry
     convergence threshold     =      1.0E-06
     mixing beta               =       0.7000
     number of iterations used =            8  plain     mixing
     Exchange-correlation      = RVV10 ( 1  4 13  4 3 0)

     celldm(1)=  23.293684  celldm(2)=   0.000000  celldm(3)=   0.811261
     celldm(4)=   0.000000  celldm(5)=   0.000000  celldm(6)=   0.000000

     crystal axes: (cart. coord. in units of alat)
               a(1) = (   1.000000   0.000000   0.000000 )  
               a(2) = (  -0.500000   0.866025   0.000000 )  
               a(3) = (   0.000000   0.000000   0.811261 )  

     reciprocal axes: (cart. coord. in units 2 pi/alat)
               b(1) = (  1.000000  0.577350 -0.000000 )  
               b(2) = (  0.000000  1.154701  0.000000 )  
               b(3) = (  0.000000 -0.000000  1.232649 )  


     PseudoPot. # 1 for H  read from file:
     /home/cristian/Escritorio/Proyecto_Grafeno/pseudopotenciales/H.pbe-rrkjus.UPF
     MD5 check sum: 7cc9d459525c9a0585f487a71c3c9563
     Pseudo is Ultrasoft, Zval =  1.0
     Generated by new atomic code, or converted to UPF format
     Using radial grid of 1061 points,  2 beta functions with: 
                l(1) =   0
                l(2) =   0
     Q(r) pseudized with 0 coefficients 


     PseudoPot. # 2 for C  read from file:
     /home/cristian/Escritorio/Proyecto_Grafeno/pseudopotenciales/C.pbe-n-rrkjus_psl.1.0.0.UPF
     MD5 check sum: 1fdd950c42eb37d8afe3dd2f8d12311e
     Pseudo is Ultrasoft + core correction, Zval =  4.0
     Generated using "atomic" code by A. Dal Corso v.6.3MaX
     Using radial grid of 1073 points,  4 beta functions with: 
                l(1) =   0
                l(2) =   0
                l(3) =   1
                l(4) =   1
     Q(r) pseudized with 0 coefficients 


     PseudoPot. # 3 for Mn read from file:
     /home/cristian/Escritorio/Proyecto_Grafeno/pseudopotenciales/Mn.pbe-spn-rrkjus_psl.0.3.1.UPF
     MD5 check sum: e1cac159bdd2ba70c18e85765a5d4279
     Pseudo is Ultrasoft + core correction, Zval = 15.0
     Generated using "atomic" code by A. Dal Corso v.6.2.2
     Using radial grid of 1187 points,  6 beta functions with: 
                l(1) =   0
                l(2) =   0
                l(3) =   1
                l(4) =   1
                l(5) =   2
                l(6) =   2
     Q(r) pseudized with 0 coefficients 


     vdW kernel table read from file rVV10_kernel_table
     MD5 check sum: b8e2538accc0c0b3206b45ba4daaba6c

     atomic species   valence    mass     pseudopotential
        H              1.00     1.00794     H ( 1.00)
        C              4.00    12.01070     C ( 1.00)
        Mn            15.00    54.93804     Mn( 1.00)

     No symmetry found


                                    s                        frac. trans.

      isym =  1     identity                                     

 cryst.   s( 1) = (     1          0          0      )
                  (     0          1          0      )
                  (     0          0          1      )

 cart.    s( 1) = (  1.0000000  0.0000000  0.0000000 )
                  (  0.0000000  1.0000000  0.0000000 )
                  (  0.0000000  0.0000000  1.0000000 )


     point group C_1 (1)    
     there are  1 classes
     the character table:

       E    
A      1.00

     the symmetry operations in each class and the name of the first element:

     E        1
          identity                                               

   Cartesian axes

     site n.     atom                  positions (alat units)
         1           H   tau(   1) = (   0.2694937   0.4041452   0.2839414  )
         2           H   tau(   2) = (   0.3305063   0.4041452   0.2839414  )
         3           C   tau(   3) = (   0.0000000   0.0000000   0.0000000  )
         4           C   tau(   4) = (   0.0000000   0.1154701   0.0000000  )
         5           C   tau(   5) = (  -0.1000000   0.1732051   0.0000000  )
         6           C   tau(   6) = (  -0.1000000   0.2886751   0.0000000  )
         7           C   tau(   7) = (  -0.2000000   0.3464102   0.0000000  )
         8           C   tau(   8) = (  -0.2000000   0.4618802   0.0000000  )
         9           C   tau(   9) = (  -0.3000000   0.5196152   0.0000000  )
        10           C   tau(  10) = (  -0.3000000   0.6350853   0.0000000  )
        11           C   tau(  11) = (  -0.4000000   0.6928203   0.0000000  )
        12           C   tau(  12) = (  -0.4000000   0.8082904   0.0000000  )
        13           C   tau(  13) = (   0.2000000   0.0000000   0.0000000  )
        14           C   tau(  14) = (   0.2000000   0.1154701   0.0000000  )
        15           C   tau(  15) = (   0.1000000   0.1732051   0.0000000  )
        16           C   tau(  16) = (   0.1000000   0.2886751   0.0000000  )
        17           C   tau(  17) = (   0.0000000   0.3464102   0.0000000  )
        18           C   tau(  18) = (   0.0000000   0.4618802   0.0000000  )
        19           C   tau(  19) = (  -0.1000000   0.5196152   0.0000000  )
        20           C   tau(  20) = (  -0.1000000   0.6350853   0.0000000  )
        21           C   tau(  21) = (  -0.2000000   0.6928203   0.0000000  )
        22           C   tau(  22) = (  -0.2000000   0.8082904   0.0000000  )
        23           C   tau(  23) = (   0.4000000   0.0000000   0.0000000  )
        24           C   tau(  24) = (   0.4000000   0.1154701   0.0000000  )
        25           C   tau(  25) = (   0.3000000   0.1732051   0.0000000  )
        26           C   tau(  26) = (   0.3000000   0.2886751   0.0000000  )
        27           C   tau(  27) = (   0.2000000   0.3464102   0.0000000  )
        28           Mn  tau(  28) = (   0.2000000   0.4618802   0.0000000  )
        29           C   tau(  29) = (   0.1000000   0.5196152   0.0000000  )
        30           C   tau(  30) = (   0.1000000   0.6350853   0.0000000  )
        31           C   tau(  31) = (   0.0000000   0.6928203   0.0000000  )
        32           C   tau(  32) = (   0.0000000   0.8082904   0.0000000  )
        33           C   tau(  33) = (   0.6000000   0.0000000   0.0000000  )
        34           C   tau(  34) = (   0.6000000   0.1154701   0.0000000  )
        35           C   tau(  35) = (   0.5000000   0.1732051   0.0000000  )
        36           C   tau(  36) = (   0.5000000   0.2886751   0.0000000  )
        37           C   tau(  37) = (   0.4000000   0.3464102   0.0000000  )
        38           C   tau(  38) = (   0.4000000   0.4618802   0.0000000  )
        39           C   tau(  39) = (   0.3000000   0.5196152   0.0000000  )
        40           C   tau(  40) = (   0.3000000   0.6350853   0.0000000  )
        41           C   tau(  41) = (   0.2000000   0.6928203   0.0000000  )
        42           C   tau(  42) = (   0.2000000   0.8082904   0.0000000  )
        43           C   tau(  43) = (   0.8000000   0.0000000   0.0000000  )
        44           C   tau(  44) = (   0.8000000   0.1154701   0.0000000  )
        45           C   tau(  45) = (   0.7000000   0.1732051   0.0000000  )
        46           C   tau(  46) = (   0.7000000   0.2886751   0.0000000  )
        47           C   tau(  47) = (   0.6000000   0.3464102   0.0000000  )
        48           C   tau(  48) = (   0.6000000   0.4618802   0.0000000  )
        49           C   tau(  49) = (   0.5000000   0.5196152   0.0000000  )
        50           C   tau(  50) = (   0.5000000   0.6350853   0.0000000  )
        51           C   tau(  51) = (   0.4000000   0.6928203   0.0000000  )
        52           C   tau(  52) = (   0.4000000   0.8082904   0.0000000  )

   Crystallographic axes

     site n.     atom                  positions (cryst. coord.)
         1           H   tau(   1) = (  0.5028270  0.4666667  0.3500000  )
         2           H   tau(   2) = (  0.5638397  0.4666667  0.3500000  )
         3           C   tau(   3) = (  0.0000000  0.0000000  0.0000000  )
         4           C   tau(   4) = (  0.0666667  0.1333333  0.0000000  )
         5           C   tau(   5) = (  0.0000000  0.2000000  0.0000000  )
         6           C   tau(   6) = (  0.0666667  0.3333333  0.0000000  )
         7           C   tau(   7) = (  0.0000000  0.4000000  0.0000000  )
         8           C   tau(   8) = (  0.0666667  0.5333333  0.0000000  )
         9           C   tau(   9) = (  0.0000000  0.6000000  0.0000000  )
        10           C   tau(  10) = (  0.0666667  0.7333333  0.0000000  )
        11           C   tau(  11) = (  0.0000000  0.8000000  0.0000000  )
        12           C   tau(  12) = (  0.0666667  0.9333333  0.0000000  )
        13           C   tau(  13) = (  0.2000000  0.0000000  0.0000000  )
        14           C   tau(  14) = (  0.2666667  0.1333333  0.0000000  )
        15           C   tau(  15) = (  0.2000000  0.2000000  0.0000000  )
        16           C   tau(  16) = (  0.2666667  0.3333333  0.0000000  )
        17           C   tau(  17) = (  0.2000000  0.4000000  0.0000000  )
        18           C   tau(  18) = (  0.2666667  0.5333333  0.0000000  )
        19           C   tau(  19) = (  0.2000000  0.6000000  0.0000000  )
        20           C   tau(  20) = (  0.2666667  0.7333333  0.0000000  )
        21           C   tau(  21) = (  0.2000000  0.8000000  0.0000000  )
        22           C   tau(  22) = (  0.2666667  0.9333333  0.0000000  )
        23           C   tau(  23) = (  0.4000000  0.0000000  0.0000000  )
        24           C   tau(  24) = (  0.4666667  0.1333333  0.0000000  )
        25           C   tau(  25) = (  0.4000000  0.2000000  0.0000000  )
        26           C   tau(  26) = (  0.4666667  0.3333333  0.0000000  )
        27           C   tau(  27) = (  0.4000000  0.4000000  0.0000000  )
        28           Mn  tau(  28) = (  0.4666667  0.5333333  0.0000000  )
        29           C   tau(  29) = (  0.4000000  0.6000000  0.0000000  )
        30           C   tau(  30) = (  0.4666667  0.7333333  0.0000000  )
        31           C   tau(  31) = (  0.4000000  0.8000000  0.0000000  )
        32           C   tau(  32) = (  0.4666667  0.9333333  0.0000000  )
        33           C   tau(  33) = (  0.6000000  0.0000000  0.0000000  )
        34           C   tau(  34) = (  0.6666667  0.1333333  0.0000000  )
        35           C   tau(  35) = (  0.6000000  0.2000000  0.0000000  )
        36           C   tau(  36) = (  0.6666667  0.3333333  0.0000000  )
        37           C   tau(  37) = (  0.6000000  0.4000000  0.0000000  )
        38           C   tau(  38) = (  0.6666667  0.5333333  0.0000000  )
        39           C   tau(  39) = (  0.6000000  0.6000000  0.0000000  )
        40           C   tau(  40) = (  0.6666667  0.7333333  0.0000000  )
        41           C   tau(  41) = (  0.6000000  0.8000000  0.0000000  )
        42           C   tau(  42) = (  0.6666667  0.9333333  0.0000000  )
        43           C   tau(  43) = (  0.8000000  0.0000000  0.0000000  )
        44           C   tau(  44) = (  0.8666667  0.1333333  0.0000000  )
        45           C   tau(  45) = (  0.8000000  0.2000000  0.0000000  )
        46           C   tau(  46) = (  0.8666667  0.3333333  0.0000000  )
        47           C   tau(  47) = (  0.8000000  0.4000000  0.0000000  )
        48           C   tau(  48) = (  0.8666667  0.5333333  0.0000000  )
        49           C   tau(  49) = (  0.8000000  0.6000000  0.0000000  )
        50           C   tau(  50) = (  0.8666667  0.7333333  0.0000000  )
        51           C   tau(  51) = (  0.8000000  0.8000000  0.0000000  )
        52           C   tau(  52) = (  0.8666667  0.9333333  0.0000000  )

     number of k points=     1  Marzari-Vanderbilt smearing, width (Ry)=  0.0010
                       cart. coord. in units 2pi/alat
        k(    1) = (   0.0000000   0.0000000   0.0000000), wk =   2.0000000

                       cryst. coord.
        k(    1) = (   0.0000000   0.0000000   0.0000000), wk =   2.0000000

     Dense  grid:  1626001 G-vectors     FFT dimensions: ( 180, 180, 135)

     Smooth grid:   702581 G-vectors     FFT dimensions: ( 125, 125, 108)

     Dynamical RAM for                 wfc:      28.59 MB

     Dynamical RAM for     wfc (w. buffer):      28.59 MB

     Dynamical RAM for           str. fact:      12.41 MB

     Dynamical RAM for           local pot:       0.00 MB

     Dynamical RAM for          nlocal pot:      92.46 MB

     Dynamical RAM for                qrad:      19.73 MB

     Dynamical RAM for          rho,v,vnew:      29.46 MB

     Dynamical RAM for               rhoin:       9.82 MB

     Dynamical RAM for            rho*nmix:      66.16 MB

     Dynamical RAM for           G-vectors:      16.40 MB

     Dynamical RAM for          h,s,v(r/c):      12.00 MB

     Dynamical RAM for          <psi|beta>:       0.81 MB

     Dynamical RAM for                 psi:     114.35 MB

     Dynamical RAM for                hpsi:     114.35 MB

     Dynamical RAM for                spsi:     114.35 MB

     Dynamical RAM for      wfcinit/wfcrot:      93.90 MB

     Dynamical RAM for           addusdens:     971.75 MB

     Estimated static dynamical RAM per process >     320.00 MB

     Estimated max dynamical RAM per process >       1.26 GB

     Estimated total dynamical RAM >       7.57 GB

     Check: negative core charge=   -0.000002

     Initial potential from superposition of free atoms

     starting charge  212.80506, renormalised to  213.00000

     negative rho (up, down):  6.518E-05 0.000E+00


---------------------------------------------------------------------------------
Carrying out rVV10 run using the following parameters:
Nqs =      20    Nr_points =    1024   r_max =   100.000
b_value =  6.30000    beta =  0.00901
     q_mesh =  0.00010000  0.00030000  0.00058939  0.00100810
               0.00161396  0.00249058  0.00375900  0.00559430
               0.00824984  0.01209221  0.01765183  0.02569619
               0.03733578  0.05417739  0.07854596  0.11380545
               0.16482331  0.23864234  0.34545298  0.50000000

Gradients computed in Reciprocal space

---------------------------------------------------------------------------------


     Starting wfcs are  208 randomized atomic wfcs

     total cpu time spent up to now is       48.9 secs

     Self-consistent Calculation

     iteration #  1     ecut=    70.00 Ry     beta= 0.70
     Davidson diagonalization with overlap
     ethr =  1.00E-02,  avg # of iterations =  2.0

     negative rho (up, down):  1.214E-04 0.000E+00

     total cpu time spent up to now is      113.2 secs

     total energy              =    -823.52537453 Ry
     Harris-Foulkes estimate   =    -828.73257820 Ry
     estimated scf accuracy    <       7.84155823 Ry

     iteration #  2     ecut=    70.00 Ry     beta= 0.70
     Davidson diagonalization with overlap
     ethr =  3.68E-03,  avg # of iterations =  6.0

     negative rho (up, down):  1.463E-04 0.000E+00

     total cpu time spent up to now is      178.0 secs

     total energy              =    -815.90335797 Ry
     Harris-Foulkes estimate   =    -833.20236483 Ry
     estimated scf accuracy    <      72.17235867 Ry

     iteration #  3     ecut=    70.00 Ry     beta= 0.70
     Davidson diagonalization with overlap
     ethr =  3.68E-03,  avg # of iterations =  5.0

     negative rho (up, down):  1.954E-04 0.000E+00

     total cpu time spent up to now is      270.7 secs

     total energy              =    -824.90844231 Ry
     Harris-Foulkes estimate   =    -827.10782240 Ry
     estimated scf accuracy    <      10.87832992 Ry

     iteration #  4     ecut=    70.00 Ry     beta= 0.70
     Davidson diagonalization with overlap
     ethr =  3.68E-03,  avg # of iterations =  3.0

     negative rho (up, down):  2.151E-04 0.000E+00

     total cpu time spent up to now is      319.8 secs

     total energy              =    -825.65292032 Ry
     Harris-Foulkes estimate   =    -826.32015968 Ry
     estimated scf accuracy    <       2.05233783 Ry

     iteration #  5     ecut=    70.00 Ry     beta= 0.70
     Davidson diagonalization with overlap
     ethr =  9.64E-04,  avg # of iterations =  4.0

     negative rho (up, down):  2.305E-04 0.000E+00

     total cpu time spent up to now is      371.2 secs

     total energy              =    -825.86021586 Ry
     Harris-Foulkes estimate   =    -825.95824249 Ry
     estimated scf accuracy    <       0.53548266 Ry

     iteration #  6     ecut=    70.00 Ry     beta= 0.70
     Davidson diagonalization with overlap
     ethr =  2.51E-04,  avg # of iterations =  3.0

     negative rho (up, down):  2.503E-04 0.000E+00

     total cpu time spent up to now is      420.1 secs

     total energy              =    -825.89576856 Ry
     Harris-Foulkes estimate   =    -825.93019009 Ry
     estimated scf accuracy    <       0.29746042 Ry

     iteration #  7     ecut=    70.00 Ry     beta= 0.70
     Davidson diagonalization with overlap
     ethr =  1.40E-04,  avg # of iterations =  1.0

     negative rho (up, down):  3.062E-04 0.000E+00

     total cpu time spent up to now is      468.0 secs

     total energy              =    -825.86806739 Ry
     Harris-Foulkes estimate   =    -825.91305078 Ry
     estimated scf accuracy    <       0.41134436 Ry

     iteration #  8     ecut=    70.00 Ry     beta= 0.70
     Davidson diagonalization with overlap
     ethr =  1.40E-04,  avg # of iterations =  1.0

     negative rho (up, down):  4.247E-04 0.000E+00

     total cpu time spent up to now is      515.8 secs

     total energy              =    -825.90753317 Ry
     Harris-Foulkes estimate   =    -825.92151997 Ry
     estimated scf accuracy    <       0.28024045 Ry

     iteration #  9     ecut=    70.00 Ry     beta= 0.70
     Davidson diagonalization with overlap
     ethr =  1.32E-04,  avg # of iterations =  1.0

     negative rho (up, down):  4.009E-04 0.000E+00

     total cpu time spent up to now is      563.7 secs

     total energy              =    -825.90194271 Ry
     Harris-Foulkes estimate   =    -825.91590167 Ry
     estimated scf accuracy    <       0.24176476 Ry

     iteration # 10     ecut=    70.00 Ry     beta= 0.70
     Davidson diagonalization with overlap
     ethr =  1.14E-04,  avg # of iterations =  1.0

     negative rho (up, down):  4.817E-04 0.000E+00

     total cpu time spent up to now is      611.5 secs

     total energy              =    -825.90349369 Ry
     Harris-Foulkes estimate   =    -825.91253412 Ry
     estimated scf accuracy    <       0.25907748 Ry

     iteration # 11     ecut=    70.00 Ry     beta= 0.70
     Davidson diagonalization with overlap
     ethr =  1.14E-04,  avg # of iterations =  1.0

     negative rho (up, down):  5.737E-04 0.000E+00

     total cpu time spent up to now is      659.3 secs

     total energy              =    -825.90173512 Ry
     Harris-Foulkes estimate   =    -825.90805190 Ry
     estimated scf accuracy    <       0.23399764 Ry

     iteration # 12     ecut=    70.00 Ry     beta= 0.70
     Davidson diagonalization with overlap
     ethr =  1.10E-04,  avg # of iterations =  1.0

     negative rho (up, down):  5.775E-04 0.000E+00

     total cpu time spent up to now is      707.1 secs

     total energy              =    -825.89902179 Ry
     Harris-Foulkes estimate   =    -825.90370758 Ry
     estimated scf accuracy    <       0.21236663 Ry

     iteration # 13     ecut=    70.00 Ry     beta= 0.70
     Davidson diagonalization with overlap
     ethr =  9.97E-05,  avg # of iterations =  1.0

     negative rho (up, down):  5.789E-04 0.000E+00

     total cpu time spent up to now is      755.0 secs

     total energy              =    -825.89689412 Ry
     Harris-Foulkes estimate   =    -825.90051686 Ry
     estimated scf accuracy    <       0.20118979 Ry

     iteration # 14     ecut=    70.00 Ry     beta= 0.70
     Davidson diagonalization with overlap
     ethr =  9.45E-05,  avg # of iterations =  1.0

     negative rho (up, down):  5.868E-04 0.000E+00

     total cpu time spent up to now is      802.8 secs

     total energy              =    -825.89543102 Ry
     Harris-Foulkes estimate   =    -825.89771360 Ry
     estimated scf accuracy    <       0.07736062 Ry

     iteration # 15     ecut=    70.00 Ry     beta= 0.70
     Davidson diagonalization with overlap
     ethr =  3.63E-05,  avg # of iterations =  1.0

     negative rho (up, down):  5.714E-04 0.000E+00

     total cpu time spent up to now is      850.5 secs

     total energy              =    -825.89867917 Ry
     Harris-Foulkes estimate   =    -825.89861295 Ry
     estimated scf accuracy    <       0.24211753 Ry

     iteration # 16     ecut=    70.00 Ry     beta= 0.70
     Davidson diagonalization with overlap
     ethr =  3.63E-05,  avg # of iterations =  1.0

     negative rho (up, down):  5.888E-04 0.000E+00

     total cpu time spent up to now is      898.3 secs

     total energy              =    -825.89552650 Ry
     Harris-Foulkes estimate   =    -825.89929881 Ry
     estimated scf accuracy    <       0.25464197 Ry

     iteration # 17     ecut=    70.00 Ry     beta= 0.70
     Davidson diagonalization with overlap
     ethr =  3.63E-05,  avg # of iterations =  1.0

     negative rho (up, down):  5.900E-04 0.000E+00

     total cpu time spent up to now is      946.1 secs

     total energy              =    -825.89685937 Ry
     Harris-Foulkes estimate   =    -825.89697999 Ry
     estimated scf accuracy    <       0.00993298 Ry

     iteration # 18     ecut=    70.00 Ry     beta= 0.70
     Davidson diagonalization with overlap
     ethr =  4.66E-06,  avg # of iterations = 15.0

     negative rho (up, down):  5.934E-04 0.000E+00

     total cpu time spent up to now is      996.8 secs

     total energy              =    -825.89676489 Ry
     Harris-Foulkes estimate   =    -825.89694935 Ry
     estimated scf accuracy    <       0.00283130 Ry

     iteration # 19     ecut=    70.00 Ry     beta= 0.70
     Davidson diagonalization with overlap
     ethr =  1.33E-06,  avg # of iterations =  1.0

     negative rho (up, down):  5.904E-04 0.000E+00

     total cpu time spent up to now is     1044.6 secs

     total energy              =    -825.89633683 Ry
     Harris-Foulkes estimate   =    -825.89685997 Ry
     estimated scf accuracy    <       0.02196674 Ry

     iteration # 20     ecut=    70.00 Ry     beta= 0.70
     Davidson diagonalization with overlap
     ethr =  1.33E-06,  avg # of iterations =  1.0

     negative rho (up, down):  5.928E-04 0.000E+00

     total cpu time spent up to now is     1092.4 secs

     total energy              =    -825.89669944 Ry
     Harris-Foulkes estimate   =    -825.89692507 Ry
     estimated scf accuracy    <       0.00942576 Ry

     iteration # 21     ecut=    70.00 Ry     beta= 0.70
     Davidson diagonalization with overlap
     ethr =  1.33E-06,  avg # of iterations =  1.0

     negative rho (up, down):  5.928E-04 0.000E+00

     total cpu time spent up to now is     1140.1 secs

     total energy              =    -825.89679100 Ry
     Harris-Foulkes estimate   =    -825.89681808 Ry
     estimated scf accuracy    <       0.00144586 Ry

     iteration # 22     ecut=    70.00 Ry     beta= 0.70
     Davidson diagonalization with overlap
     ethr =  6.79E-07,  avg # of iterations =  1.0

     negative rho (up, down):  5.916E-04 0.000E+00

     total cpu time spent up to now is     1188.0 secs

     total energy              =    -825.89695848 Ry
     Harris-Foulkes estimate   =    -825.89679635 Ry
     estimated scf accuracy    <       0.00269487 Ry

     iteration # 23     ecut=    70.00 Ry     beta= 0.70
     Davidson diagonalization with overlap
     ethr =  6.79E-07,  avg # of iterations =  1.0

     negative rho (up, down):  5.915E-04 0.000E+00

     total cpu time spent up to now is     1235.7 secs

     total energy              =    -825.89690571 Ry
     Harris-Foulkes estimate   =    -825.89690408 Ry
     estimated scf accuracy    <       0.00094569 Ry

     iteration # 24     ecut=    70.00 Ry     beta= 0.70
     Davidson diagonalization with overlap
     ethr =  4.44E-07,  avg # of iterations =  1.0

     negative rho (up, down):  5.914E-04 0.000E+00

     total cpu time spent up to now is     1283.5 secs

     total energy              =    -825.89691136 Ry
     Harris-Foulkes estimate   =    -825.89693278 Ry
     estimated scf accuracy    <       0.00112253 Ry

     iteration # 25     ecut=    70.00 Ry     beta= 0.70
     Davidson diagonalization with overlap
     ethr =  4.44E-07,  avg # of iterations =  1.0

     negative rho (up, down):  5.914E-04 0.000E+00

     total cpu time spent up to now is     1331.2 secs

     total energy              =    -825.89694589 Ry
     Harris-Foulkes estimate   =    -825.89693197 Ry
     estimated scf accuracy    <       0.00091967 Ry

     iteration # 26     ecut=    70.00 Ry     beta= 0.70
     Davidson diagonalization with overlap
     ethr =  4.32E-07,  avg # of iterations =  1.0

     negative rho (up, down):  5.913E-04 0.000E+00

     total cpu time spent up to now is     1378.9 secs

     total energy              =    -825.89699712 Ry
     Harris-Foulkes estimate   =    -825.89694969 Ry
     estimated scf accuracy    <       0.00047660 Ry

     iteration # 27     ecut=    70.00 Ry     beta= 0.70
     Davidson diagonalization with overlap
     ethr =  2.24E-07,  avg # of iterations =  1.0

     negative rho (up, down):  5.912E-04 0.000E+00

     total cpu time spent up to now is     1426.7 secs

     total energy              =    -825.89702442 Ry
     Harris-Foulkes estimate   =    -825.89700408 Ry
     estimated scf accuracy    <       0.00119424 Ry

     iteration # 28     ecut=    70.00 Ry     beta= 0.70
     Davidson diagonalization with overlap
     ethr =  2.24E-07,  avg # of iterations =  1.0

     negative rho (up, down):  5.912E-04 0.000E+00

     total cpu time spent up to now is     1474.5 secs

     total energy              =    -825.89703220 Ry
     Harris-Foulkes estimate   =    -825.89702699 Ry
     estimated scf accuracy    <       0.00121353 Ry

     iteration # 29     ecut=    70.00 Ry     beta= 0.70
     Davidson diagonalization with overlap
     ethr =  2.24E-07,  avg # of iterations =  1.0

     negative rho (up, down):  5.909E-04 0.000E+00

     total cpu time spent up to now is     1522.3 secs

     total energy              =    -825.89712361 Ry
     Harris-Foulkes estimate   =    -825.89704483 Ry
     estimated scf accuracy    <       0.00373128 Ry

     iteration # 30     ecut=    70.00 Ry     beta= 0.70
     Davidson diagonalization with overlap
     ethr =  2.24E-07,  avg # of iterations =  1.0

     negative rho (up, down):  5.907E-04 0.000E+00

     total cpu time spent up to now is     1570.1 secs

     total energy              =    -825.89717350 Ry
     Harris-Foulkes estimate   =    -825.89714768 Ry
     estimated scf accuracy    <       0.00201796 Ry

     iteration # 31     ecut=    70.00 Ry     beta= 0.70
     Davidson diagonalization with overlap
     ethr =  2.24E-07,  avg # of iterations =  1.0

     negative rho (up, down):  5.924E-04 0.000E+00

     total cpu time spent up to now is     1617.9 secs

     total energy              =    -825.89661636 Ry
     Harris-Foulkes estimate   =    -825.89717658 Ry
     estimated scf accuracy    <       0.00205809 Ry

     iteration # 32     ecut=    70.00 Ry     beta= 0.70
     Davidson diagonalization with overlap
     ethr =  2.24E-07,  avg # of iterations =  3.0

     negative rho (up, down):  5.923E-04 0.000E+00

     total cpu time spent up to now is     1676.2 secs

     total energy              =    -825.89647555 Ry
     Harris-Foulkes estimate   =    -825.89692004 Ry
     estimated scf accuracy    <       0.01249467 Ry

     iteration # 33     ecut=    70.00 Ry     beta= 0.70
     Davidson diagonalization with overlap
     ethr =  2.24E-07,  avg # of iterations =  2.0

     negative rho (up, down):  5.926E-04 0.000E+00

     total cpu time spent up to now is     1724.4 secs

     total energy              =    -825.89666324 Ry
     Harris-Foulkes estimate   =    -825.89675308 Ry
     estimated scf accuracy    <       0.00161543 Ry

     iteration # 34     ecut=    70.00 Ry     beta= 0.70
     Davidson diagonalization with overlap
     ethr =  2.24E-07,  avg # of iterations =  1.0

     negative rho (up, down):  5.924E-04 0.000E+00

     total cpu time spent up to now is     1772.0 secs

     total energy              =    -825.89664904 Ry
     Harris-Foulkes estimate   =    -825.89671194 Ry
     estimated scf accuracy    <       0.00072323 Ry

     iteration # 35     ecut=    70.00 Ry     beta= 0.70
     Davidson diagonalization with overlap
     ethr =  2.24E-07,  avg # of iterations =  1.0

     negative rho (up, down):  5.926E-04 0.000E+00

     total cpu time spent up to now is     1819.8 secs

     total energy              =    -825.89676379 Ry
     Harris-Foulkes estimate   =    -825.89680562 Ry
     estimated scf accuracy    <       0.00364850 Ry

     iteration # 36     ecut=    70.00 Ry     beta= 0.70
     Davidson diagonalization with overlap
     ethr =  2.24E-07,  avg # of iterations =  1.0

     negative rho (up, down):  5.922E-04 0.000E+00

     total cpu time spent up to now is     1867.5 secs

     total energy              =    -825.89675687 Ry
     Harris-Foulkes estimate   =    -825.89682096 Ry
     estimated scf accuracy    <       0.00529048 Ry

     iteration # 37     ecut=    70.00 Ry     beta= 0.70
     Davidson diagonalization with overlap
     ethr =  2.24E-07,  avg # of iterations =  1.0

     negative rho (up, down):  5.926E-04 0.000E+00

     total cpu time spent up to now is     1915.2 secs

     total energy              =    -825.89668492 Ry
     Harris-Foulkes estimate   =    -825.89684237 Ry
     estimated scf accuracy    <       0.00378390 Ry

     iteration # 38     ecut=    70.00 Ry     beta= 0.70
     Davidson diagonalization with overlap
     ethr =  2.24E-07,  avg # of iterations =  1.0

     negative rho (up, down):  5.928E-04 0.000E+00

     total cpu time spent up to now is     1963.0 secs

     total energy              =    -825.89667033 Ry
     Harris-Foulkes estimate   =    -825.89672211 Ry
     estimated scf accuracy    <       0.00112639 Ry

     iteration # 39     ecut=    70.00 Ry     beta= 0.70
     Davidson diagonalization with overlap
     ethr =  2.24E-07,  avg # of iterations =  1.0

     negative rho (up, down):  5.930E-04 0.000E+00

     total cpu time spent up to now is     2010.8 secs

     total energy              =    -825.89669323 Ry
     Harris-Foulkes estimate   =    -825.89672733 Ry
     estimated scf accuracy    <       0.00135306 Ry

     iteration # 40     ecut=    70.00 Ry     beta= 0.70
     Davidson diagonalization with overlap
     ethr =  2.24E-07,  avg # of iterations =  1.0

     negative rho (up, down):  5.928E-04 0.000E+00

     total cpu time spent up to now is     2058.6 secs

     total energy              =    -825.89669455 Ry
     Harris-Foulkes estimate   =    -825.89670821 Ry
     estimated scf accuracy    <       0.00039170 Ry

     iteration # 41     ecut=    70.00 Ry     beta= 0.70
     Davidson diagonalization with overlap
     ethr =  1.84E-07,  avg # of iterations =  1.0

     negative rho (up, down):  5.928E-04 0.000E+00

     total cpu time spent up to now is     2106.4 secs

     total energy              =    -825.89670216 Ry
     Harris-Foulkes estimate   =    -825.89671081 Ry
     estimated scf accuracy    <       0.00041689 Ry

     iteration # 42     ecut=    70.00 Ry     beta= 0.70
     Davidson diagonalization with overlap
     ethr =  1.84E-07,  avg # of iterations =  1.0

     negative rho (up, down):  5.928E-04 0.000E+00

     total cpu time spent up to now is     2154.7 secs

     total energy              =    -825.89670529 Ry
     Harris-Foulkes estimate   =    -825.89670619 Ry
     estimated scf accuracy    <       0.00002674 Ry

     iteration # 43     ecut=    70.00 Ry     beta= 0.70
     Davidson diagonalization with overlap
     ethr =  1.26E-08,  avg # of iterations =  1.0

     negative rho (up, down):  5.928E-04 0.000E+00

     total cpu time spent up to now is     2202.6 secs

     total energy              =    -825.89670488 Ry
     Harris-Foulkes estimate   =    -825.89670610 Ry
     estimated scf accuracy    <       0.00006549 Ry

     iteration # 44     ecut=    70.00 Ry     beta= 0.70
     Davidson diagonalization with overlap
     ethr =  1.26E-08,  avg # of iterations =  2.0

     negative rho (up, down):  5.928E-04 0.000E+00

     total cpu time spent up to now is     2250.6 secs

     total energy              =    -825.89670183 Ry
     Harris-Foulkes estimate   =    -825.89670935 Ry
     estimated scf accuracy    <       0.00018234 Ry

     iteration # 45     ecut=    70.00 Ry     beta= 0.70
     Davidson diagonalization with overlap
     ethr =  1.26E-08,  avg # of iterations =  2.0

     negative rho (up, down):  5.928E-04 0.000E+00

     total cpu time spent up to now is     2298.6 secs

     total energy              =    -825.89670545 Ry
     Harris-Foulkes estimate   =    -825.89670559 Ry
     estimated scf accuracy    <       0.00000498 Ry

     iteration # 46     ecut=    70.00 Ry     beta= 0.70
     Davidson diagonalization with overlap
     ethr =  2.34E-09,  avg # of iterations =  1.0

     negative rho (up, down):  5.928E-04 0.000E+00

     total cpu time spent up to now is     2346.3 secs

     total energy              =    -825.89670533 Ry
     Harris-Foulkes estimate   =    -825.89670573 Ry
     estimated scf accuracy    <       0.00002114 Ry

     iteration # 47     ecut=    70.00 Ry     beta= 0.70
     Davidson diagonalization with overlap
     ethr =  2.34E-09,  avg # of iterations =  1.0

     negative rho (up, down):  5.928E-04 0.000E+00

     total cpu time spent up to now is     2393.9 secs

     total energy              =    -825.89670531 Ry
     Harris-Foulkes estimate   =    -825.89670578 Ry
     estimated scf accuracy    <       0.00001810 Ry

     iteration # 48     ecut=    70.00 Ry     beta= 0.70
     Davidson diagonalization with overlap
     ethr =  2.34E-09,  avg # of iterations =  1.0

     negative rho (up, down):  5.927E-04 0.000E+00

     total cpu time spent up to now is     2441.4 secs

     End of self-consistent calculation

          k = 0.0000 0.0000 0.0000 ( 87777 PWs)   bands (ev):

   -80.0183 -49.6592 -49.6584 -48.2330 -19.7597 -18.9220 -18.9218 -18.8345
   -18.8166 -18.8164 -18.4555 -17.0619 -17.0616 -17.0611 -16.9690 -16.9690
   -16.6726 -16.2106 -16.2104 -16.1115 -16.0470 -16.0467 -15.3521 -14.0936
   -14.0932 -14.0219 -13.9891 -13.9889 -13.3284 -13.0551 -13.0551 -13.0256
   -12.7293 -12.7292 -12.3021 -11.8252 -11.8251 -11.6469 -11.3732 -11.3732
   -10.4532  -9.6390  -9.6389  -9.4273  -9.3033  -9.3031  -9.2220  -9.1879
    -9.1878  -9.1781  -8.6896  -8.6895  -8.1416  -8.1416  -8.0479  -7.8962
    -7.8250  -7.4219  -7.4218  -7.1624  -7.1024  -7.0943  -6.8882  -6.8880
    -6.8040  -6.7991  -6.7923  -6.7086  -6.5840  -6.5539  -6.5538  -6.5284
    -6.5182  -6.5181  -6.4700  -6.3957  -5.5042  -5.5041  -5.4974  -5.4968
    -5.2820  -5.2817  -4.9804  -4.8770  -4.8378  -4.7143  -4.6832  -4.6825
    -4.3726  -4.1651  -4.1651  -4.1135  -4.1131  -3.8236  -3.8231  -3.7484
    -3.6617  -3.6616  -3.1198  -2.6193  -2.6190  -1.8113  -1.7926  -1.7923
    -0.8371  -0.8264  -0.8263  -0.8254   0.9737   0.9810   0.9813   1.6480
     1.6482   1.6539   2.5681   2.8211   2.8215   2.8863   3.1631   3.1877
     3.5042   3.5595   3.5599   3.5782   3.6952   3.7744   3.7879   3.7926

     occupation numbers 
     1.0000   1.0000   1.0000   1.0000   1.0000   1.0000   1.0000   1.0000
     1.0000   1.0000   1.0000   1.0000   1.0000   1.0000   1.0000   1.0000
     1.0000   1.0000   1.0000   1.0000   1.0000   1.0000   1.0000   1.0000
     1.0000   1.0000   1.0000   1.0000   1.0000   1.0000   1.0000   1.0000
     1.0000   1.0000   1.0000   1.0000   1.0000   1.0000   1.0000   1.0000
     1.0000   1.0000   1.0000   1.0000   1.0000   1.0000   1.0000   1.0000
     1.0000   1.0000   1.0000   1.0000   1.0000   1.0000   1.0000   1.0000
     1.0000   1.0000   1.0000   1.0000   1.0000   1.0000   1.0000   1.0000
     1.0000   1.0000   1.0000   1.0000   1.0000   1.0000   1.0000   1.0000
     1.0000   1.0000   1.0000   1.0000   1.0000   1.0000   1.0000   1.0000
     1.0000   1.0000   1.0000   1.0000   1.0000   1.0000   1.0000   1.0000
     1.0000   1.0000   1.0000   1.0000   1.0000   1.0000   1.0000   1.0000
     1.0000   1.0000   1.0000   1.0000   1.0000   1.0000   1.0000   1.0000
     1.0110   0.5143   0.5121   0.4626   0.0000   0.0000   0.0000   0.0000
     0.0000   0.0000   0.0000   0.0000   0.0000   0.0000   0.0000   0.0000
     0.0000   0.0000   0.0000   0.0000   0.0000   0.0000   0.0000   0.0000

     the Fermi energy is    -0.8242 ev

!    total energy              =    -825.89670505 Ry
     Harris-Foulkes estimate   =    -825.89670554 Ry
     estimated scf accuracy    <       0.00000061 Ry

     The total energy is the sum of the following terms:

     one-electron contribution =   -2713.41626145 Ry
     hartree contribution      =    1401.53757783 Ry
     xc contribution           =    -259.57736031 Ry
     ewald contribution        =     745.56014037 Ry
     smearing contrib. (-TS)   =      -0.00080148 Ry

     convergence has been achieved in  48 iterations

     Writing output data file manganeso-sixhollow-distance-3.5.save/

     init_run     :     46.63s CPU     47.79s WALL (       1 calls)
     electrons    :   2317.55s CPU   2392.63s WALL (       1 calls)

     Called by init_run:
     wfcinit      :     20.31s CPU     20.50s WALL (       1 calls)
     wfcinit:atom :      0.03s CPU      0.05s WALL (       1 calls)
     wfcinit:wfcr :     20.12s CPU     20.25s WALL (       1 calls)
     potinit      :     11.63s CPU     12.00s WALL (       1 calls)
     hinit0       :     10.25s CPU     10.28s WALL (       1 calls)

     Called by electrons:
     c_bands      :   1350.99s CPU   1358.37s WALL (      48 calls)
     sum_band     :    475.41s CPU    501.64s WALL (      48 calls)
     v_of_rho     :    291.24s CPU    308.21s WALL (      49 calls)
     v_h          :      3.31s CPU      3.46s WALL (      49 calls)
     v_xc         :    287.93s CPU    304.75s WALL (      49 calls)
     newd         :    194.44s CPU    219.47s WALL (      49 calls)
     mix_rho      :      9.85s CPU     10.03s WALL (      48 calls)

     Called by c_bands:
     init_us_2    :      4.16s CPU      4.21s WALL (      97 calls)
     cegterg      :   1340.32s CPU   1347.64s WALL (      48 calls)

     Called by sum_band:
     sum_band:bec :      0.04s CPU      0.04s WALL (      48 calls)
     addusdens    :    291.27s CPU    316.27s WALL (      48 calls)

     Called by *egterg:
     h_psi        :    710.07s CPU    715.21s WALL (     133 calls)
     s_psi        :    238.27s CPU    238.39s WALL (     133 calls)
     g_psi        :      0.75s CPU      0.75s WALL (      84 calls)
     cdiaghg      :      7.69s CPU      7.69s WALL (     132 calls)
     cegterg:over :    158.05s CPU    158.11s WALL (      84 calls)
     cegterg:upda :     86.07s CPU     86.63s WALL (      84 calls)
     cegterg:last :     77.57s CPU     77.60s WALL (      49 calls)

     Called by h_psi:
     h_psi:pot    :    709.26s CPU    713.48s WALL (     133 calls)
     h_psi:calbec :    239.39s CPU    239.50s WALL (     133 calls)
     vloc_psi     :    231.89s CPU    235.91s WALL (     133 calls)
     add_vuspsi   :    237.98s CPU    238.08s WALL (     133 calls)

     General routines
     calbec       :    351.34s CPU    351.51s WALL (     181 calls)
     fft          :    163.97s CPU    170.07s WALL (    3085 calls)
     ffts         :      1.68s CPU      1.75s WALL (      97 calls)
     fftw         :    251.25s CPU    255.78s WALL (   32450 calls)
     interpolate  :      3.97s CPU      4.10s WALL (      49 calls)

     Parallel routines
     fft_scatt_xy :     70.78s CPU     71.68s WALL (   35632 calls)
     fft_scatt_yz :    145.85s CPU    153.49s WALL (   35632 calls)

     PWSCF        :  39m25.42s CPU  40m41.85s WALL


   This run was terminated on:  13:48: 7   3Sep2022            

=------------------------------------------------------------------------------=
   JOB DONE.
=------------------------------------------------------------------------------=
