
     Program PWSCF v.6.4.1 starts on  3Sep2022 at 13:48: 7 

     This program is part of the open-source Quantum ESPRESSO suite
     for quantum simulation of materials; please cite
         "P. Giannozzi et al., J. Phys.:Condens. Matter 21 395502 (2009);
         "P. Giannozzi et al., J. Phys.:Condens. Matter 29 465901 (2017);
          URL http://www.quantum-espresso.org", 
     in publications or presentations arising from this work. More details at
     http://www.quantum-espresso.org/quote

     Parallel version (MPI), running on     6 processors

     MPI processes distributed on     1 nodes
     R & G space division:  proc/nbgrp/npool/nimage =       6
     Reading input from distance-3.0.in

     Current dimensions of program PWSCF are:
     Max number of different atomic species (ntypx) = 10
     Max number of k-points (npk) =  40000
     Max angular momentum in pseudopotentials (lmaxx) =  3

     IMPORTANT: XC functional enforced from input :
     Exchange-correlation      = RVV10 ( 1  4 13  4 3 0)
     Any further DFT definition will be discarded
     Please, verify this is what you really want

               file H.pbe-rrkjus.UPF: wavefunction(s)  1S renormalized
               file Mn.pbe-spn-rrkjus_psl.0.3.1.UPF: wavefunction(s)  3D renormalized

     Subspace diagonalization in iterative solution of the eigenvalue problem:
     a serial algorithm will be used


     Parallelization info
     --------------------
     sticks:   dense  smooth     PW     G-vecs:    dense   smooth      PW
     Min        3051    1746    432               270999   117096   14629
     Max        3053    1747    437               271001   117099   14630
     Sum       18313   10477   2611              1626001   702581   87777



     bravais-lattice index     =            4
     lattice parameter (alat)  =      23.2937  a.u.
     unit-cell volume          =    8879.8548 (a.u.)^3
     number of atoms/cell      =           52
     number of atomic types    =            3
     number of electrons       =       213.00
     number of Kohn-Sham states=          128
     kinetic-energy cutoff     =      70.0000  Ry
     charge density cutoff     =     490.0000  Ry
     convergence threshold     =      1.0E-06
     mixing beta               =       0.7000
     number of iterations used =            8  plain     mixing
     Exchange-correlation      = RVV10 ( 1  4 13  4 3 0)

     celldm(1)=  23.293684  celldm(2)=   0.000000  celldm(3)=   0.811261
     celldm(4)=   0.000000  celldm(5)=   0.000000  celldm(6)=   0.000000

     crystal axes: (cart. coord. in units of alat)
               a(1) = (   1.000000   0.000000   0.000000 )  
               a(2) = (  -0.500000   0.866025   0.000000 )  
               a(3) = (   0.000000   0.000000   0.811261 )  

     reciprocal axes: (cart. coord. in units 2 pi/alat)
               b(1) = (  1.000000  0.577350 -0.000000 )  
               b(2) = (  0.000000  1.154701  0.000000 )  
               b(3) = (  0.000000 -0.000000  1.232649 )  


     PseudoPot. # 1 for H  read from file:
     /home/cristian/Escritorio/Proyecto_Grafeno/pseudopotenciales/H.pbe-rrkjus.UPF
     MD5 check sum: 7cc9d459525c9a0585f487a71c3c9563
     Pseudo is Ultrasoft, Zval =  1.0
     Generated by new atomic code, or converted to UPF format
     Using radial grid of 1061 points,  2 beta functions with: 
                l(1) =   0
                l(2) =   0
     Q(r) pseudized with 0 coefficients 


     PseudoPot. # 2 for C  read from file:
     /home/cristian/Escritorio/Proyecto_Grafeno/pseudopotenciales/C.pbe-n-rrkjus_psl.1.0.0.UPF
     MD5 check sum: 1fdd950c42eb37d8afe3dd2f8d12311e
     Pseudo is Ultrasoft + core correction, Zval =  4.0
     Generated using "atomic" code by A. Dal Corso v.6.3MaX
     Using radial grid of 1073 points,  4 beta functions with: 
                l(1) =   0
                l(2) =   0
                l(3) =   1
                l(4) =   1
     Q(r) pseudized with 0 coefficients 


     PseudoPot. # 3 for Mn read from file:
     /home/cristian/Escritorio/Proyecto_Grafeno/pseudopotenciales/Mn.pbe-spn-rrkjus_psl.0.3.1.UPF
     MD5 check sum: e1cac159bdd2ba70c18e85765a5d4279
     Pseudo is Ultrasoft + core correction, Zval = 15.0
     Generated using "atomic" code by A. Dal Corso v.6.2.2
     Using radial grid of 1187 points,  6 beta functions with: 
                l(1) =   0
                l(2) =   0
                l(3) =   1
                l(4) =   1
                l(5) =   2
                l(6) =   2
     Q(r) pseudized with 0 coefficients 


     vdW kernel table read from file rVV10_kernel_table
     MD5 check sum: b8e2538accc0c0b3206b45ba4daaba6c

     atomic species   valence    mass     pseudopotential
        H              1.00     1.00794     H ( 1.00)
        C              4.00    12.01070     C ( 1.00)
        Mn            15.00    54.93804     Mn( 1.00)

     No symmetry found


                                    s                        frac. trans.

      isym =  1     identity                                     

 cryst.   s( 1) = (     1          0          0      )
                  (     0          1          0      )
                  (     0          0          1      )

 cart.    s( 1) = (  1.0000000  0.0000000  0.0000000 )
                  (  0.0000000  1.0000000  0.0000000 )
                  (  0.0000000  0.0000000  1.0000000 )


     point group C_1 (1)    
     there are  1 classes
     the character table:

       E    
A      1.00

     the symmetry operations in each class and the name of the first element:

     E        1
          identity                                               

   Cartesian axes

     site n.     atom                  positions (alat units)
         1           H   tau(   1) = (   0.2694937   0.4041452   0.2433783  )
         2           H   tau(   2) = (   0.3305063   0.4041452   0.2433783  )
         3           C   tau(   3) = (   0.0000000   0.0000000   0.0000000  )
         4           C   tau(   4) = (   0.0000000   0.1154701   0.0000000  )
         5           C   tau(   5) = (  -0.1000000   0.1732051   0.0000000  )
         6           C   tau(   6) = (  -0.1000000   0.2886751   0.0000000  )
         7           C   tau(   7) = (  -0.2000000   0.3464102   0.0000000  )
         8           C   tau(   8) = (  -0.2000000   0.4618802   0.0000000  )
         9           C   tau(   9) = (  -0.3000000   0.5196152   0.0000000  )
        10           C   tau(  10) = (  -0.3000000   0.6350853   0.0000000  )
        11           C   tau(  11) = (  -0.4000000   0.6928203   0.0000000  )
        12           C   tau(  12) = (  -0.4000000   0.8082904   0.0000000  )
        13           C   tau(  13) = (   0.2000000   0.0000000   0.0000000  )
        14           C   tau(  14) = (   0.2000000   0.1154701   0.0000000  )
        15           C   tau(  15) = (   0.1000000   0.1732051   0.0000000  )
        16           C   tau(  16) = (   0.1000000   0.2886751   0.0000000  )
        17           C   tau(  17) = (   0.0000000   0.3464102   0.0000000  )
        18           C   tau(  18) = (   0.0000000   0.4618802   0.0000000  )
        19           C   tau(  19) = (  -0.1000000   0.5196152   0.0000000  )
        20           C   tau(  20) = (  -0.1000000   0.6350853   0.0000000  )
        21           C   tau(  21) = (  -0.2000000   0.6928203   0.0000000  )
        22           C   tau(  22) = (  -0.2000000   0.8082904   0.0000000  )
        23           C   tau(  23) = (   0.4000000   0.0000000   0.0000000  )
        24           C   tau(  24) = (   0.4000000   0.1154701   0.0000000  )
        25           C   tau(  25) = (   0.3000000   0.1732051   0.0000000  )
        26           C   tau(  26) = (   0.3000000   0.2886751   0.0000000  )
        27           C   tau(  27) = (   0.2000000   0.3464102   0.0000000  )
        28           Mn  tau(  28) = (   0.2000000   0.4618802   0.0000000  )
        29           C   tau(  29) = (   0.1000000   0.5196152   0.0000000  )
        30           C   tau(  30) = (   0.1000000   0.6350853   0.0000000  )
        31           C   tau(  31) = (   0.0000000   0.6928203   0.0000000  )
        32           C   tau(  32) = (   0.0000000   0.8082904   0.0000000  )
        33           C   tau(  33) = (   0.6000000   0.0000000   0.0000000  )
        34           C   tau(  34) = (   0.6000000   0.1154701   0.0000000  )
        35           C   tau(  35) = (   0.5000000   0.1732051   0.0000000  )
        36           C   tau(  36) = (   0.5000000   0.2886751   0.0000000  )
        37           C   tau(  37) = (   0.4000000   0.3464102   0.0000000  )
        38           C   tau(  38) = (   0.4000000   0.4618802   0.0000000  )
        39           C   tau(  39) = (   0.3000000   0.5196152   0.0000000  )
        40           C   tau(  40) = (   0.3000000   0.6350853   0.0000000  )
        41           C   tau(  41) = (   0.2000000   0.6928203   0.0000000  )
        42           C   tau(  42) = (   0.2000000   0.8082904   0.0000000  )
        43           C   tau(  43) = (   0.8000000   0.0000000   0.0000000  )
        44           C   tau(  44) = (   0.8000000   0.1154701   0.0000000  )
        45           C   tau(  45) = (   0.7000000   0.1732051   0.0000000  )
        46           C   tau(  46) = (   0.7000000   0.2886751   0.0000000  )
        47           C   tau(  47) = (   0.6000000   0.3464102   0.0000000  )
        48           C   tau(  48) = (   0.6000000   0.4618802   0.0000000  )
        49           C   tau(  49) = (   0.5000000   0.5196152   0.0000000  )
        50           C   tau(  50) = (   0.5000000   0.6350853   0.0000000  )
        51           C   tau(  51) = (   0.4000000   0.6928203   0.0000000  )
        52           C   tau(  52) = (   0.4000000   0.8082904   0.0000000  )

   Crystallographic axes

     site n.     atom                  positions (cryst. coord.)
         1           H   tau(   1) = (  0.5028270  0.4666667  0.3000000  )
         2           H   tau(   2) = (  0.5638397  0.4666667  0.3000000  )
         3           C   tau(   3) = (  0.0000000  0.0000000  0.0000000  )
         4           C   tau(   4) = (  0.0666667  0.1333333  0.0000000  )
         5           C   tau(   5) = (  0.0000000  0.2000000  0.0000000  )
         6           C   tau(   6) = (  0.0666667  0.3333333  0.0000000  )
         7           C   tau(   7) = (  0.0000000  0.4000000  0.0000000  )
         8           C   tau(   8) = (  0.0666667  0.5333333  0.0000000  )
         9           C   tau(   9) = (  0.0000000  0.6000000  0.0000000  )
        10           C   tau(  10) = (  0.0666667  0.7333333  0.0000000  )
        11           C   tau(  11) = (  0.0000000  0.8000000  0.0000000  )
        12           C   tau(  12) = (  0.0666667  0.9333333  0.0000000  )
        13           C   tau(  13) = (  0.2000000  0.0000000  0.0000000  )
        14           C   tau(  14) = (  0.2666667  0.1333333  0.0000000  )
        15           C   tau(  15) = (  0.2000000  0.2000000  0.0000000  )
        16           C   tau(  16) = (  0.2666667  0.3333333  0.0000000  )
        17           C   tau(  17) = (  0.2000000  0.4000000  0.0000000  )
        18           C   tau(  18) = (  0.2666667  0.5333333  0.0000000  )
        19           C   tau(  19) = (  0.2000000  0.6000000  0.0000000  )
        20           C   tau(  20) = (  0.2666667  0.7333333  0.0000000  )
        21           C   tau(  21) = (  0.2000000  0.8000000  0.0000000  )
        22           C   tau(  22) = (  0.2666667  0.9333333  0.0000000  )
        23           C   tau(  23) = (  0.4000000  0.0000000  0.0000000  )
        24           C   tau(  24) = (  0.4666667  0.1333333  0.0000000  )
        25           C   tau(  25) = (  0.4000000  0.2000000  0.0000000  )
        26           C   tau(  26) = (  0.4666667  0.3333333  0.0000000  )
        27           C   tau(  27) = (  0.4000000  0.4000000  0.0000000  )
        28           Mn  tau(  28) = (  0.4666667  0.5333333  0.0000000  )
        29           C   tau(  29) = (  0.4000000  0.6000000  0.0000000  )
        30           C   tau(  30) = (  0.4666667  0.7333333  0.0000000  )
        31           C   tau(  31) = (  0.4000000  0.8000000  0.0000000  )
        32           C   tau(  32) = (  0.4666667  0.9333333  0.0000000  )
        33           C   tau(  33) = (  0.6000000  0.0000000  0.0000000  )
        34           C   tau(  34) = (  0.6666667  0.1333333  0.0000000  )
        35           C   tau(  35) = (  0.6000000  0.2000000  0.0000000  )
        36           C   tau(  36) = (  0.6666667  0.3333333  0.0000000  )
        37           C   tau(  37) = (  0.6000000  0.4000000  0.0000000  )
        38           C   tau(  38) = (  0.6666667  0.5333333  0.0000000  )
        39           C   tau(  39) = (  0.6000000  0.6000000  0.0000000  )
        40           C   tau(  40) = (  0.6666667  0.7333333  0.0000000  )
        41           C   tau(  41) = (  0.6000000  0.8000000  0.0000000  )
        42           C   tau(  42) = (  0.6666667  0.9333333  0.0000000  )
        43           C   tau(  43) = (  0.8000000  0.0000000  0.0000000  )
        44           C   tau(  44) = (  0.8666667  0.1333333  0.0000000  )
        45           C   tau(  45) = (  0.8000000  0.2000000  0.0000000  )
        46           C   tau(  46) = (  0.8666667  0.3333333  0.0000000  )
        47           C   tau(  47) = (  0.8000000  0.4000000  0.0000000  )
        48           C   tau(  48) = (  0.8666667  0.5333333  0.0000000  )
        49           C   tau(  49) = (  0.8000000  0.6000000  0.0000000  )
        50           C   tau(  50) = (  0.8666667  0.7333333  0.0000000  )
        51           C   tau(  51) = (  0.8000000  0.8000000  0.0000000  )
        52           C   tau(  52) = (  0.8666667  0.9333333  0.0000000  )

     number of k points=     1  Marzari-Vanderbilt smearing, width (Ry)=  0.0010
                       cart. coord. in units 2pi/alat
        k(    1) = (   0.0000000   0.0000000   0.0000000), wk =   2.0000000

                       cryst. coord.
        k(    1) = (   0.0000000   0.0000000   0.0000000), wk =   2.0000000

     Dense  grid:  1626001 G-vectors     FFT dimensions: ( 180, 180, 135)

     Smooth grid:   702581 G-vectors     FFT dimensions: ( 125, 125, 108)

     Dynamical RAM for                 wfc:      28.59 MB

     Dynamical RAM for     wfc (w. buffer):      28.59 MB

     Dynamical RAM for           str. fact:      12.41 MB

     Dynamical RAM for           local pot:       0.00 MB

     Dynamical RAM for          nlocal pot:      92.46 MB

     Dynamical RAM for                qrad:      19.73 MB

     Dynamical RAM for          rho,v,vnew:      29.46 MB

     Dynamical RAM for               rhoin:       9.82 MB

     Dynamical RAM for            rho*nmix:      66.16 MB

     Dynamical RAM for           G-vectors:      16.40 MB

     Dynamical RAM for          h,s,v(r/c):      12.00 MB

     Dynamical RAM for          <psi|beta>:       0.81 MB

     Dynamical RAM for                 psi:     114.35 MB

     Dynamical RAM for                hpsi:     114.35 MB

     Dynamical RAM for                spsi:     114.35 MB

     Dynamical RAM for      wfcinit/wfcrot:      93.90 MB

     Dynamical RAM for           addusdens:     971.75 MB

     Estimated static dynamical RAM per process >     320.00 MB

     Estimated max dynamical RAM per process >       1.26 GB

     Estimated total dynamical RAM >       7.57 GB

     Check: negative core charge=   -0.000002

     Initial potential from superposition of free atoms

     starting charge  212.80506, renormalised to  213.00000

     negative rho (up, down):  6.991E-05 0.000E+00


---------------------------------------------------------------------------------
Carrying out rVV10 run using the following parameters:
Nqs =      20    Nr_points =    1024   r_max =   100.000
b_value =  6.30000    beta =  0.00901
     q_mesh =  0.00010000  0.00030000  0.00058939  0.00100810
               0.00161396  0.00249058  0.00375900  0.00559430
               0.00824984  0.01209221  0.01765183  0.02569619
               0.03733578  0.05417739  0.07854596  0.11380545
               0.16482331  0.23864234  0.34545298  0.50000000

Gradients computed in Reciprocal space

---------------------------------------------------------------------------------


     Starting wfcs are  208 randomized atomic wfcs

     total cpu time spent up to now is       52.1 secs

     Self-consistent Calculation

     iteration #  1     ecut=    70.00 Ry     beta= 0.70
     Davidson diagonalization with overlap
     ethr =  1.00E-02,  avg # of iterations =  2.0

     negative rho (up, down):  1.355E-04 0.000E+00

     total cpu time spent up to now is      116.2 secs

     total energy              =    -823.32886598 Ry
     Harris-Foulkes estimate   =    -828.76557548 Ry
     estimated scf accuracy    <       8.09524089 Ry

     iteration #  2     ecut=    70.00 Ry     beta= 0.70
     Davidson diagonalization with overlap
     ethr =  3.80E-03,  avg # of iterations =  7.0

     negative rho (up, down):  1.648E-04 0.000E+00

     total cpu time spent up to now is      179.7 secs

     total energy              =    -815.66974851 Ry
     Harris-Foulkes estimate   =    -834.07013270 Ry
     estimated scf accuracy    <      76.26888407 Ry

     iteration #  3     ecut=    70.00 Ry     beta= 0.70
     Davidson diagonalization with overlap
     ethr =  3.80E-03,  avg # of iterations =  6.0

     negative rho (up, down):  2.202E-04 0.000E+00

     total cpu time spent up to now is      270.1 secs

     total energy              =    -824.90909058 Ry
     Harris-Foulkes estimate   =    -827.03872173 Ry
     estimated scf accuracy    <      10.13343143 Ry

     iteration #  4     ecut=    70.00 Ry     beta= 0.70
     Davidson diagonalization with overlap
     ethr =  3.80E-03,  avg # of iterations =  3.0

     negative rho (up, down):  2.417E-04 0.000E+00

     total cpu time spent up to now is      319.2 secs

     total energy              =    -825.61353703 Ry
     Harris-Foulkes estimate   =    -826.36993730 Ry
     estimated scf accuracy    <       2.37670640 Ry

     iteration #  5     ecut=    70.00 Ry     beta= 0.70
     Davidson diagonalization with overlap
     ethr =  1.12E-03,  avg # of iterations =  3.0

     negative rho (up, down):  2.590E-04 0.000E+00

     total cpu time spent up to now is      369.4 secs

     total energy              =    -825.85442427 Ry
     Harris-Foulkes estimate   =    -825.94877616 Ry
     estimated scf accuracy    <       0.47069776 Ry

     iteration #  6     ecut=    70.00 Ry     beta= 0.70
     Davidson diagonalization with overlap
     ethr =  2.21E-04,  avg # of iterations =  4.0

     negative rho (up, down):  2.800E-04 0.000E+00

     total cpu time spent up to now is      419.5 secs

     total energy              =    -825.89856769 Ry
     Harris-Foulkes estimate   =    -825.93552856 Ry
     estimated scf accuracy    <       0.32716509 Ry

     iteration #  7     ecut=    70.00 Ry     beta= 0.70
     Davidson diagonalization with overlap
     ethr =  1.54E-04,  avg # of iterations =  1.0

     negative rho (up, down):  3.237E-04 0.000E+00

     total cpu time spent up to now is      467.3 secs

     total energy              =    -825.88411709 Ry
     Harris-Foulkes estimate   =    -825.91036743 Ry
     estimated scf accuracy    <       0.11548928 Ry

     iteration #  8     ecut=    70.00 Ry     beta= 0.70
     Davidson diagonalization with overlap
     ethr =  5.42E-05,  avg # of iterations = 13.0

     negative rho (up, down):  4.164E-04 0.000E+00

     total cpu time spent up to now is      518.4 secs

     total energy              =    -825.90335912 Ry
     Harris-Foulkes estimate   =    -825.92346194 Ry
     estimated scf accuracy    <       0.28565810 Ry

     iteration #  9     ecut=    70.00 Ry     beta= 0.70
     Davidson diagonalization with overlap
     ethr =  5.42E-05,  avg # of iterations =  1.0

     negative rho (up, down):  4.806E-04 0.000E+00

     total cpu time spent up to now is      566.3 secs

     total energy              =    -825.89315975 Ry
     Harris-Foulkes estimate   =    -825.90645465 Ry
     estimated scf accuracy    <       0.21058006 Ry

     iteration # 10     ecut=    70.00 Ry     beta= 0.70
     Davidson diagonalization with overlap
     ethr =  5.42E-05,  avg # of iterations =  1.0

     negative rho (up, down):  6.248E-04 0.000E+00

     total cpu time spent up to now is      614.2 secs

     total energy              =    -825.89873186 Ry
     Harris-Foulkes estimate   =    -825.90511039 Ry
     estimated scf accuracy    <       0.22576142 Ry

     iteration # 11     ecut=    70.00 Ry     beta= 0.70
     Davidson diagonalization with overlap
     ethr =  5.42E-05,  avg # of iterations =  1.0

     negative rho (up, down):  5.887E-04 0.000E+00

     total cpu time spent up to now is      662.4 secs

     total energy              =    -825.89666261 Ry
     Harris-Foulkes estimate   =    -825.90225878 Ry
     estimated scf accuracy    <       0.46418636 Ry

     iteration # 12     ecut=    70.00 Ry     beta= 0.70
     Davidson diagonalization with overlap
     ethr =  5.42E-05,  avg # of iterations =  1.0

     negative rho (up, down):  5.760E-04 0.000E+00

     total cpu time spent up to now is      710.5 secs

     total energy              =    -825.89739600 Ry
     Harris-Foulkes estimate   =    -825.89928117 Ry
     estimated scf accuracy    <       0.26503400 Ry

     iteration # 13     ecut=    70.00 Ry     beta= 0.70
     Davidson diagonalization with overlap
     ethr =  5.42E-05,  avg # of iterations =  1.0

     negative rho (up, down):  5.826E-04 0.000E+00

     total cpu time spent up to now is      758.2 secs

     total energy              =    -825.89294441 Ry
     Harris-Foulkes estimate   =    -825.89850656 Ry
     estimated scf accuracy    <       0.09326238 Ry

     iteration # 14     ecut=    70.00 Ry     beta= 0.70
     Davidson diagonalization with overlap
     ethr =  4.38E-05,  avg # of iterations =  1.0

     negative rho (up, down):  5.713E-04 0.000E+00

     total cpu time spent up to now is      806.1 secs

     total energy              =    -825.89498680 Ry
     Harris-Foulkes estimate   =    -825.90267385 Ry
     estimated scf accuracy    <       0.17386203 Ry

     iteration # 15     ecut=    70.00 Ry     beta= 0.70
     Davidson diagonalization with overlap
     ethr =  4.38E-05,  avg # of iterations =  1.0

     negative rho (up, down):  5.899E-04 0.000E+00

     total cpu time spent up to now is      853.9 secs

     total energy              =    -825.89515705 Ry
     Harris-Foulkes estimate   =    -825.89887943 Ry
     estimated scf accuracy    <       0.16901230 Ry

     iteration # 16     ecut=    70.00 Ry     beta= 0.70
     Davidson diagonalization with overlap
     ethr =  4.38E-05,  avg # of iterations =  1.0

     negative rho (up, down):  6.019E-04 0.000E+00

     total cpu time spent up to now is      901.9 secs

     total energy              =    -825.89755768 Ry
     Harris-Foulkes estimate   =    -825.89824919 Ry
     estimated scf accuracy    <       0.09290740 Ry

     iteration # 17     ecut=    70.00 Ry     beta= 0.70
     Davidson diagonalization with overlap
     ethr =  4.36E-05,  avg # of iterations =  1.0

     negative rho (up, down):  6.066E-04 0.000E+00

     total cpu time spent up to now is      949.6 secs

     total energy              =    -825.89749307 Ry
     Harris-Foulkes estimate   =    -825.89797865 Ry
     estimated scf accuracy    <       0.08533667 Ry

     iteration # 18     ecut=    70.00 Ry     beta= 0.70
     Davidson diagonalization with overlap
     ethr =  4.01E-05,  avg # of iterations =  1.0

     negative rho (up, down):  6.127E-04 0.000E+00

     total cpu time spent up to now is      997.3 secs

     total energy              =    -825.89726242 Ry
     Harris-Foulkes estimate   =    -825.89763976 Ry
     estimated scf accuracy    <       0.03842681 Ry

     iteration # 19     ecut=    70.00 Ry     beta= 0.70
     Davidson diagonalization with overlap
     ethr =  1.80E-05,  avg # of iterations =  1.0

     negative rho (up, down):  6.147E-04 0.000E+00

     total cpu time spent up to now is     1045.3 secs

     total energy              =    -825.89744267 Ry
     Harris-Foulkes estimate   =    -825.89751097 Ry
     estimated scf accuracy    <       0.00224936 Ry

     iteration # 20     ecut=    70.00 Ry     beta= 0.70
     Davidson diagonalization with overlap
     ethr =  1.06E-06,  avg # of iterations =  1.0

     negative rho (up, down):  6.119E-04 0.000E+00

     total cpu time spent up to now is     1093.0 secs

     total energy              =    -825.89740045 Ry
     Harris-Foulkes estimate   =    -825.89748881 Ry
     estimated scf accuracy    <       0.00632170 Ry

     iteration # 21     ecut=    70.00 Ry     beta= 0.70
     Davidson diagonalization with overlap
     ethr =  1.06E-06,  avg # of iterations =  1.0

     negative rho (up, down):  6.143E-04 0.000E+00

     total cpu time spent up to now is     1140.8 secs

     total energy              =    -825.89741462 Ry
     Harris-Foulkes estimate   =    -825.89747424 Ry
     estimated scf accuracy    <       0.00142691 Ry

     iteration # 22     ecut=    70.00 Ry     beta= 0.70
     Davidson diagonalization with overlap
     ethr =  6.70E-07,  avg # of iterations =  1.0

     negative rho (up, down):  6.182E-04 0.000E+00

     total cpu time spent up to now is     1188.6 secs

     total energy              =    -825.89743264 Ry
     Harris-Foulkes estimate   =    -825.89745838 Ry
     estimated scf accuracy    <       0.00047584 Ry

     iteration # 23     ecut=    70.00 Ry     beta= 0.70
     Davidson diagonalization with overlap
     ethr =  2.23E-07,  avg # of iterations =  1.0

     negative rho (up, down):  6.191E-04 0.000E+00

     total cpu time spent up to now is     1236.3 secs

     total energy              =    -825.89743873 Ry
     Harris-Foulkes estimate   =    -825.89745789 Ry
     estimated scf accuracy    <       0.00211320 Ry

     iteration # 24     ecut=    70.00 Ry     beta= 0.70
     Davidson diagonalization with overlap
     ethr =  2.23E-07,  avg # of iterations =  1.0

     negative rho (up, down):  6.198E-04 0.000E+00

     total cpu time spent up to now is     1284.0 secs

     total energy              =    -825.89744629 Ry
     Harris-Foulkes estimate   =    -825.89744889 Ry
     estimated scf accuracy    <       0.00003596 Ry

     iteration # 25     ecut=    70.00 Ry     beta= 0.70
     Davidson diagonalization with overlap
     ethr =  1.69E-08,  avg # of iterations =  1.0

     negative rho (up, down):  6.198E-04 0.000E+00

     total cpu time spent up to now is     1331.7 secs

     total energy              =    -825.89744642 Ry
     Harris-Foulkes estimate   =    -825.89744819 Ry
     estimated scf accuracy    <       0.00002939 Ry

     iteration # 26     ecut=    70.00 Ry     beta= 0.70
     Davidson diagonalization with overlap
     ethr =  1.38E-08,  avg # of iterations =  1.0

     negative rho (up, down):  6.201E-04 0.000E+00

     total cpu time spent up to now is     1379.3 secs

     total energy              =    -825.89744665 Ry
     Harris-Foulkes estimate   =    -825.89744813 Ry
     estimated scf accuracy    <       0.00002727 Ry

     iteration # 27     ecut=    70.00 Ry     beta= 0.70
     Davidson diagonalization with overlap
     ethr =  1.28E-08,  avg # of iterations =  1.0

     negative rho (up, down):  6.202E-04 0.000E+00

     total cpu time spent up to now is     1427.0 secs

     total energy              =    -825.89744645 Ry
     Harris-Foulkes estimate   =    -825.89744758 Ry
     estimated scf accuracy    <       0.00000623 Ry

     iteration # 28     ecut=    70.00 Ry     beta= 0.70
     Davidson diagonalization with overlap
     ethr =  2.92E-09,  avg # of iterations =  3.0

     negative rho (up, down):  6.203E-04 0.000E+00

     total cpu time spent up to now is     1476.3 secs

     total energy              =    -825.89744217 Ry
     Harris-Foulkes estimate   =    -825.89745239 Ry
     estimated scf accuracy    <       0.00042099 Ry

     iteration # 29     ecut=    70.00 Ry     beta= 0.70
     Davidson diagonalization with overlap
     ethr =  2.92E-09,  avg # of iterations =  3.0

     negative rho (up, down):  6.203E-04 0.000E+00

     total cpu time spent up to now is     1526.1 secs

     total energy              =    -825.89744711 Ry
     Harris-Foulkes estimate   =    -825.89744749 Ry
     estimated scf accuracy    <       0.00000466 Ry

     iteration # 30     ecut=    70.00 Ry     beta= 0.70
     Davidson diagonalization with overlap
     ethr =  2.19E-09,  avg # of iterations =  1.0

     negative rho (up, down):  6.204E-04 0.000E+00

     total cpu time spent up to now is     1573.8 secs

     total energy              =    -825.89744716 Ry
     Harris-Foulkes estimate   =    -825.89744745 Ry
     estimated scf accuracy    <       0.00003612 Ry

     iteration # 31     ecut=    70.00 Ry     beta= 0.70
     Davidson diagonalization with overlap
     ethr =  2.19E-09,  avg # of iterations =  1.0

     negative rho (up, down):  6.205E-04 0.000E+00

     total cpu time spent up to now is     1626.9 secs

     total energy              =    -825.89744696 Ry
     Harris-Foulkes estimate   =    -825.89744748 Ry
     estimated scf accuracy    <       0.00001363 Ry

     iteration # 32     ecut=    70.00 Ry     beta= 0.70
     Davidson diagonalization with overlap
     ethr =  2.19E-09,  avg # of iterations =  1.0

     negative rho (up, down):  6.205E-04 0.000E+00

     total cpu time spent up to now is     1675.1 secs

     total energy              =    -825.89744534 Ry
     Harris-Foulkes estimate   =    -825.89744934 Ry
     estimated scf accuracy    <       0.00015675 Ry

     iteration # 33     ecut=    70.00 Ry     beta= 0.70
     Davidson diagonalization with overlap
     ethr =  2.19E-09,  avg # of iterations =  1.0

     negative rho (up, down):  6.207E-04 0.000E+00

     total cpu time spent up to now is     1722.6 secs

     End of self-consistent calculation

          k = 0.0000 0.0000 0.0000 ( 87777 PWs)   bands (ev):

   -80.0321 -49.6717 -49.6698 -48.2518 -19.7555 -18.9183 -18.9174 -18.8294
   -18.8132 -18.8125 -18.4530 -17.0586 -17.0576 -17.0571 -16.9654 -16.9650
   -16.6684 -16.2070 -16.2063 -16.1071 -16.0438 -16.0433 -15.3498 -14.0911
   -14.0896 -14.0184 -13.9847 -13.9845 -13.3246 -13.0515 -13.0512 -13.0216
   -12.7258 -12.7254 -12.2983 -11.8220 -11.8218 -11.6429 -11.3698 -11.3697
   -10.4507  -9.6372  -9.6369  -9.4243  -9.2992  -9.2990  -9.2174  -9.1834
    -9.1831  -9.1735  -8.6860  -8.6857  -8.1390  -8.1386  -8.0444  -7.8989
    -7.8210  -7.4178  -7.4177  -7.1604  -7.1399  -7.0950  -6.8855  -6.8848
    -6.8307  -6.7950  -6.7891  -6.7053  -6.6701  -6.5497  -6.5491  -6.5240
    -6.5142  -6.5138  -6.4659  -6.3159  -5.5018  -5.5006  -5.5001  -5.4948
    -5.2794  -5.2787  -4.9764  -4.8729  -4.8422  -4.7111  -4.6795  -4.6765
    -4.3653  -4.1627  -4.1620  -4.1154  -4.1142  -3.8200  -3.8178  -3.7438
    -3.6576  -3.6571  -3.1160  -2.6194  -2.6191  -1.8085  -1.7886  -1.7881
    -0.8389  -0.8282  -0.8280  -0.8267   0.9763   0.9844   0.9850   1.6494
     1.6498   1.6560   2.5668   2.8246   2.8253   2.8901   3.1470   3.1862
     3.4929   3.5605   3.5608   3.6009   3.7044   3.7764   3.7901   3.7951

     occupation numbers 
     1.0000   1.0000   1.0000   1.0000   1.0000   1.0000   1.0000   1.0000
     1.0000   1.0000   1.0000   1.0000   1.0000   1.0000   1.0000   1.0000
     1.0000   1.0000   1.0000   1.0000   1.0000   1.0000   1.0000   1.0000
     1.0000   1.0000   1.0000   1.0000   1.0000   1.0000   1.0000   1.0000
     1.0000   1.0000   1.0000   1.0000   1.0000   1.0000   1.0000   1.0000
     1.0000   1.0000   1.0000   1.0000   1.0000   1.0000   1.0000   1.0000
     1.0000   1.0000   1.0000   1.0000   1.0000   1.0000   1.0000   1.0000
     1.0000   1.0000   1.0000   1.0000   1.0000   1.0000   1.0000   1.0000
     1.0000   1.0000   1.0000   1.0000   1.0000   1.0000   1.0000   1.0000
     1.0000   1.0000   1.0000   1.0000   1.0000   1.0000   1.0000   1.0000
     1.0000   1.0000   1.0000   1.0000   1.0000   1.0000   1.0000   1.0000
     1.0000   1.0000   1.0000   1.0000   1.0000   1.0000   1.0000   1.0000
     1.0000   1.0000   1.0000   1.0000   1.0000   1.0000   1.0000   1.0000
     1.0147   0.5242   0.5165   0.4445   0.0000   0.0000   0.0000   0.0000
     0.0000   0.0000   0.0000   0.0000   0.0000   0.0000   0.0000   0.0000
     0.0000   0.0000   0.0000   0.0000   0.0000   0.0000   0.0000   0.0000

     the Fermi energy is    -0.8258 ev

!    total energy              =    -825.89744675 Ry
     Harris-Foulkes estimate   =    -825.89744733 Ry
     estimated scf accuracy    <       0.00000073 Ry

     The total energy is the sum of the following terms:

     one-electron contribution =   -2721.80216903 Ry
     hartree contribution      =    1405.75541562 Ry
     xc contribution           =    -259.58851421 Ry
     ewald contribution        =     749.73861332 Ry
     smearing contrib. (-TS)   =      -0.00079243 Ry

     convergence has been achieved in  33 iterations

     Writing output data file manganeso-sixhollow-distance-3.0.save/

     init_run     :     49.99s CPU     51.03s WALL (       1 calls)
     electrons    :   1619.13s CPU   1670.60s WALL (       1 calls)

     Called by init_run:
     wfcinit      :     20.25s CPU     20.37s WALL (       1 calls)
     wfcinit:atom :      0.03s CPU      0.04s WALL (       1 calls)
     wfcinit:wfcr :     20.06s CPU     20.13s WALL (       1 calls)
     potinit      :     13.02s CPU     13.39s WALL (       1 calls)
     hinit0       :     12.17s CPU     12.20s WALL (       1 calls)

     Called by electrons:
     c_bands      :    950.11s CPU    955.18s WALL (      33 calls)
     sum_band     :    329.77s CPU    347.84s WALL (      33 calls)
     v_of_rho     :    202.46s CPU    214.15s WALL (      34 calls)
     v_h          :      2.28s CPU      2.39s WALL (      34 calls)
     v_xc         :    200.18s CPU    211.77s WALL (      34 calls)
     newd         :    136.29s CPU    153.51s WALL (      34 calls)
     mix_rho      :      6.67s CPU      6.79s WALL (      33 calls)

     Called by c_bands:
     init_us_2    :      2.88s CPU      2.91s WALL (      67 calls)
     cegterg      :    942.69s CPU    947.75s WALL (      33 calls)

     Called by sum_band:
     sum_band:bec :      0.03s CPU      0.03s WALL (      33 calls)
     addusdens    :    205.59s CPU    222.77s WALL (      33 calls)

     Called by *egterg:
     h_psi        :    499.81s CPU    503.36s WALL (     102 calls)
     s_psi        :    169.61s CPU    169.66s WALL (     102 calls)
     g_psi        :      0.51s CPU      0.52s WALL (      68 calls)
     cdiaghg      :      6.05s CPU      6.05s WALL (     101 calls)
     cegterg:over :    111.38s CPU    111.42s WALL (      68 calls)
     cegterg:upda :     62.17s CPU     62.55s WALL (      68 calls)
     cegterg:last :     55.67s CPU     55.68s WALL (      34 calls)

     Called by h_psi:
     h_psi:pot    :    499.26s CPU    502.16s WALL (     102 calls)
     h_psi:calbec :    169.11s CPU    169.16s WALL (     102 calls)
     vloc_psi     :    161.27s CPU    164.09s WALL (     102 calls)
     add_vuspsi   :    168.87s CPU    168.91s WALL (     102 calls)

     General routines
     calbec       :    246.19s CPU    246.28s WALL (     135 calls)
     fft          :    114.97s CPU    119.10s WALL (    2140 calls)
     ffts         :      1.10s CPU      1.15s WALL (      67 calls)
     fftw         :    172.05s CPU    175.29s WALL (   22764 calls)
     interpolate  :      2.77s CPU      2.85s WALL (      34 calls)

     Parallel routines
     fft_scatt_xy :     49.83s CPU     50.49s WALL (   24971 calls)
     fft_scatt_yz :     95.79s CPU    101.13s WALL (   24971 calls)

     PWSCF        :  27m50.25s CPU  28m42.97s WALL


   This run was terminated on:  14:16:50   3Sep2022            

=------------------------------------------------------------------------------=
   JOB DONE.
=------------------------------------------------------------------------------=
