
     Program PWSCF v.6.4.1 starts on  9Aug2022 at 13:18:40 

     This program is part of the open-source Quantum ESPRESSO suite
     for quantum simulation of materials; please cite
         "P. Giannozzi et al., J. Phys.:Condens. Matter 21 395502 (2009);
         "P. Giannozzi et al., J. Phys.:Condens. Matter 29 465901 (2017);
          URL http://www.quantum-espresso.org", 
     in publications or presentations arising from this work. More details at
     http://www.quantum-espresso.org/quote

     Parallel version (MPI), running on     6 processors

     MPI processes distributed on     1 nodes
     R & G space division:  proc/nbgrp/npool/nimage =       6
     Reading input from distance-5.0.in

     Current dimensions of program PWSCF are:
     Max number of different atomic species (ntypx) = 10
     Max number of k-points (npk) =  40000
     Max angular momentum in pseudopotentials (lmaxx) =  3

     IMPORTANT: XC functional enforced from input :
     Exchange-correlation      = RVV10 ( 1  4 13  4 3 0)
     Any further DFT definition will be discarded
     Please, verify this is what you really want

               file H.pbe-rrkjus.UPF: wavefunction(s)  1S renormalized
               file Mn.pbe-spn-rrkjus_psl.0.3.1.UPF: wavefunction(s)  3D renormalized

     Subspace diagonalization in iterative solution of the eigenvalue problem:
     a serial algorithm will be used


     Parallelization info
     --------------------
     sticks:   dense  smooth     PW     G-vecs:    dense   smooth      PW
     Min        3051    1746    432               270999   117096   14629
     Max        3053    1747    437               271001   117099   14630
     Sum       18313   10477   2611              1626001   702581   87777



     bravais-lattice index     =            4
     lattice parameter (alat)  =      23.2937  a.u.
     unit-cell volume          =    8879.8548 (a.u.)^3
     number of atoms/cell      =           52
     number of atomic types    =            3
     number of electrons       =       213.00
     number of Kohn-Sham states=          128
     kinetic-energy cutoff     =      70.0000  Ry
     charge density cutoff     =     490.0000  Ry
     convergence threshold     =      1.0E-06
     mixing beta               =       0.7000
     number of iterations used =            8  plain     mixing
     Exchange-correlation      = RVV10 ( 1  4 13  4 3 0)

     celldm(1)=  23.293684  celldm(2)=   0.000000  celldm(3)=   0.811261
     celldm(4)=   0.000000  celldm(5)=   0.000000  celldm(6)=   0.000000

     crystal axes: (cart. coord. in units of alat)
               a(1) = (   1.000000   0.000000   0.000000 )  
               a(2) = (  -0.500000   0.866025   0.000000 )  
               a(3) = (   0.000000   0.000000   0.811261 )  

     reciprocal axes: (cart. coord. in units 2 pi/alat)
               b(1) = (  1.000000  0.577350 -0.000000 )  
               b(2) = (  0.000000  1.154701  0.000000 )  
               b(3) = (  0.000000 -0.000000  1.232649 )  


     PseudoPot. # 1 for H  read from file:
     /home/cristian/Escritorio/Proyecto_Grafeno/pseudopotenciales/H.pbe-rrkjus.UPF
     MD5 check sum: 7cc9d459525c9a0585f487a71c3c9563
     Pseudo is Ultrasoft, Zval =  1.0
     Generated by new atomic code, or converted to UPF format
     Using radial grid of 1061 points,  2 beta functions with: 
                l(1) =   0
                l(2) =   0
     Q(r) pseudized with 0 coefficients 


     PseudoPot. # 2 for C  read from file:
     /home/cristian/Escritorio/Proyecto_Grafeno/pseudopotenciales/C.pbe-n-rrkjus_psl.1.0.0.UPF
     MD5 check sum: 1fdd950c42eb37d8afe3dd2f8d12311e
     Pseudo is Ultrasoft + core correction, Zval =  4.0
     Generated using "atomic" code by A. Dal Corso v.6.3MaX
     Using radial grid of 1073 points,  4 beta functions with: 
                l(1) =   0
                l(2) =   0
                l(3) =   1
                l(4) =   1
     Q(r) pseudized with 0 coefficients 


     PseudoPot. # 3 for Mn read from file:
     /home/cristian/Escritorio/Proyecto_Grafeno/pseudopotenciales/Mn.pbe-spn-rrkjus_psl.0.3.1.UPF
     MD5 check sum: e1cac159bdd2ba70c18e85765a5d4279
     Pseudo is Ultrasoft + core correction, Zval = 15.0
     Generated using "atomic" code by A. Dal Corso v.6.2.2
     Using radial grid of 1187 points,  6 beta functions with: 
                l(1) =   0
                l(2) =   0
                l(3) =   1
                l(4) =   1
                l(5) =   2
                l(6) =   2
     Q(r) pseudized with 0 coefficients 


     vdW kernel table read from file rVV10_kernel_table
     MD5 check sum: b8e2538accc0c0b3206b45ba4daaba6c

     atomic species   valence    mass     pseudopotential
        H              1.00     1.00794     H ( 1.00)
        C              4.00    12.01070     C ( 1.00)
        Mn            15.00    54.93804     Mn( 1.00)

     Starting magnetic structure 
     atomic species   magnetization
        H            0.500
        C            0.300
        Mn           0.800

      2 Sym. Ops. (no inversion) found


                                    s                        frac. trans.

      isym =  1     identity                                     

 cryst.   s( 1) = (     1          0          0      )
                  (     0          1          0      )
                  (     0          0          1      )

 cart.    s( 1) = (  1.0000000  0.0000000  0.0000000 )
                  (  0.0000000  1.0000000  0.0000000 )
                  (  0.0000000  0.0000000  1.0000000 )


      isym =  2     inv. 180 deg rotation - cryst. axis [1,1,0]  

 cryst.   s( 2) = (     0         -1          0      )
                  (    -1          0          0      )
                  (     0          0          1      )

 cart.    s( 2) = (  0.5000000 -0.8660254  0.0000000 )
                  ( -0.8660254 -0.5000000  0.0000000 )
                  (  0.0000000  0.0000000  1.0000000 )


     point group C_s (m)    
     there are  2 classes
     the character table:

       E     s    
A'     1.00  1.00
A''    1.00 -1.00

     the symmetry operations in each class and the name of the first element:

     E        1
          identity                                               
     s        2
          inv. 180 deg rotation - cryst. axis [1,1,0]            

   Cartesian axes

     site n.     atom                  positions (alat units)
         1           H   tau(   1) = (   0.2000000   0.4618802   0.4056306  )
         2           H   tau(   2) = (   0.2000000   0.4618802   0.4666433  )
         3           C   tau(   3) = (   0.0000000   0.0000000   0.0000000  )
         4           C   tau(   4) = (   0.0000000   0.1154701   0.0000000  )
         5           C   tau(   5) = (  -0.1000000   0.1732051   0.0000000  )
         6           C   tau(   6) = (  -0.1000000   0.2886751   0.0000000  )
         7           C   tau(   7) = (  -0.2000000   0.3464102   0.0000000  )
         8           C   tau(   8) = (  -0.2000000   0.4618802   0.0000000  )
         9           C   tau(   9) = (  -0.3000000   0.5196152   0.0000000  )
        10           C   tau(  10) = (  -0.3000000   0.6350853   0.0000000  )
        11           C   tau(  11) = (  -0.4000000   0.6928203   0.0000000  )
        12           C   tau(  12) = (  -0.4000000   0.8082904   0.0000000  )
        13           C   tau(  13) = (   0.2000000   0.0000000   0.0000000  )
        14           C   tau(  14) = (   0.2000000   0.1154701   0.0000000  )
        15           C   tau(  15) = (   0.1000000   0.1732051   0.0000000  )
        16           C   tau(  16) = (   0.1000000   0.2886751   0.0000000  )
        17           C   tau(  17) = (   0.0000000   0.3464102   0.0000000  )
        18           C   tau(  18) = (   0.0000000   0.4618802   0.0000000  )
        19           C   tau(  19) = (  -0.1000000   0.5196152   0.0000000  )
        20           C   tau(  20) = (  -0.1000000   0.6350853   0.0000000  )
        21           C   tau(  21) = (  -0.2000000   0.6928203   0.0000000  )
        22           C   tau(  22) = (  -0.2000000   0.8082904   0.0000000  )
        23           C   tau(  23) = (   0.4000000   0.0000000   0.0000000  )
        24           C   tau(  24) = (   0.4000000   0.1154701   0.0000000  )
        25           C   tau(  25) = (   0.3000000   0.1732051   0.0000000  )
        26           C   tau(  26) = (   0.3000000   0.2886751   0.0000000  )
        27           C   tau(  27) = (   0.2000000   0.3464102   0.0000000  )
        28           Mn  tau(  28) = (   0.2000000   0.4618802   0.0000000  )
        29           C   tau(  29) = (   0.1000000   0.5196152   0.0000000  )
        30           C   tau(  30) = (   0.1000000   0.6350853   0.0000000  )
        31           C   tau(  31) = (   0.0000000   0.6928203   0.0000000  )
        32           C   tau(  32) = (   0.0000000   0.8082904   0.0000000  )
        33           C   tau(  33) = (   0.6000000   0.0000000   0.0000000  )
        34           C   tau(  34) = (   0.6000000   0.1154701   0.0000000  )
        35           C   tau(  35) = (   0.5000000   0.1732051   0.0000000  )
        36           C   tau(  36) = (   0.5000000   0.2886751   0.0000000  )
        37           C   tau(  37) = (   0.4000000   0.3464102   0.0000000  )
        38           C   tau(  38) = (   0.4000000   0.4618802   0.0000000  )
        39           C   tau(  39) = (   0.3000000   0.5196152   0.0000000  )
        40           C   tau(  40) = (   0.3000000   0.6350853   0.0000000  )
        41           C   tau(  41) = (   0.2000000   0.6928203   0.0000000  )
        42           C   tau(  42) = (   0.2000000   0.8082904   0.0000000  )
        43           C   tau(  43) = (   0.8000000   0.0000000   0.0000000  )
        44           C   tau(  44) = (   0.8000000   0.1154701   0.0000000  )
        45           C   tau(  45) = (   0.7000000   0.1732051   0.0000000  )
        46           C   tau(  46) = (   0.7000000   0.2886751   0.0000000  )
        47           C   tau(  47) = (   0.6000000   0.3464102   0.0000000  )
        48           C   tau(  48) = (   0.6000000   0.4618802   0.0000000  )
        49           C   tau(  49) = (   0.5000000   0.5196152   0.0000000  )
        50           C   tau(  50) = (   0.5000000   0.6350853   0.0000000  )
        51           C   tau(  51) = (   0.4000000   0.6928203   0.0000000  )
        52           C   tau(  52) = (   0.4000000   0.8082904   0.0000000  )

   Crystallographic axes

     site n.     atom                  positions (cryst. coord.)
         1           H   tau(   1) = (  0.4666667  0.5333333  0.5000000  )
         2           H   tau(   2) = (  0.4666667  0.5333333  0.5752072  )
         3           C   tau(   3) = (  0.0000000  0.0000000  0.0000000  )
         4           C   tau(   4) = (  0.0666667  0.1333333  0.0000000  )
         5           C   tau(   5) = (  0.0000000  0.2000000  0.0000000  )
         6           C   tau(   6) = (  0.0666667  0.3333333  0.0000000  )
         7           C   tau(   7) = (  0.0000000  0.4000000  0.0000000  )
         8           C   tau(   8) = (  0.0666667  0.5333333  0.0000000  )
         9           C   tau(   9) = (  0.0000000  0.6000000  0.0000000  )
        10           C   tau(  10) = (  0.0666667  0.7333333  0.0000000  )
        11           C   tau(  11) = (  0.0000000  0.8000000  0.0000000  )
        12           C   tau(  12) = (  0.0666667  0.9333333  0.0000000  )
        13           C   tau(  13) = (  0.2000000  0.0000000  0.0000000  )
        14           C   tau(  14) = (  0.2666667  0.1333333  0.0000000  )
        15           C   tau(  15) = (  0.2000000  0.2000000  0.0000000  )
        16           C   tau(  16) = (  0.2666667  0.3333333  0.0000000  )
        17           C   tau(  17) = (  0.2000000  0.4000000  0.0000000  )
        18           C   tau(  18) = (  0.2666667  0.5333333  0.0000000  )
        19           C   tau(  19) = (  0.2000000  0.6000000  0.0000000  )
        20           C   tau(  20) = (  0.2666667  0.7333333  0.0000000  )
        21           C   tau(  21) = (  0.2000000  0.8000000  0.0000000  )
        22           C   tau(  22) = (  0.2666667  0.9333333  0.0000000  )
        23           C   tau(  23) = (  0.4000000  0.0000000  0.0000000  )
        24           C   tau(  24) = (  0.4666667  0.1333333  0.0000000  )
        25           C   tau(  25) = (  0.4000000  0.2000000  0.0000000  )
        26           C   tau(  26) = (  0.4666667  0.3333333  0.0000000  )
        27           C   tau(  27) = (  0.4000000  0.4000000  0.0000000  )
        28           Mn  tau(  28) = (  0.4666667  0.5333333  0.0000000  )
        29           C   tau(  29) = (  0.4000000  0.6000000  0.0000000  )
        30           C   tau(  30) = (  0.4666667  0.7333333  0.0000000  )
        31           C   tau(  31) = (  0.4000000  0.8000000  0.0000000  )
        32           C   tau(  32) = (  0.4666667  0.9333333  0.0000000  )
        33           C   tau(  33) = (  0.6000000  0.0000000  0.0000000  )
        34           C   tau(  34) = (  0.6666667  0.1333333  0.0000000  )
        35           C   tau(  35) = (  0.6000000  0.2000000  0.0000000  )
        36           C   tau(  36) = (  0.6666667  0.3333333  0.0000000  )
        37           C   tau(  37) = (  0.6000000  0.4000000  0.0000000  )
        38           C   tau(  38) = (  0.6666667  0.5333333  0.0000000  )
        39           C   tau(  39) = (  0.6000000  0.6000000  0.0000000  )
        40           C   tau(  40) = (  0.6666667  0.7333333  0.0000000  )
        41           C   tau(  41) = (  0.6000000  0.8000000  0.0000000  )
        42           C   tau(  42) = (  0.6666667  0.9333333  0.0000000  )
        43           C   tau(  43) = (  0.8000000  0.0000000  0.0000000  )
        44           C   tau(  44) = (  0.8666667  0.1333333  0.0000000  )
        45           C   tau(  45) = (  0.8000000  0.2000000  0.0000000  )
        46           C   tau(  46) = (  0.8666667  0.3333333  0.0000000  )
        47           C   tau(  47) = (  0.8000000  0.4000000  0.0000000  )
        48           C   tau(  48) = (  0.8666667  0.5333333  0.0000000  )
        49           C   tau(  49) = (  0.8000000  0.6000000  0.0000000  )
        50           C   tau(  50) = (  0.8666667  0.7333333  0.0000000  )
        51           C   tau(  51) = (  0.8000000  0.8000000  0.0000000  )
        52           C   tau(  52) = (  0.8666667  0.9333333  0.0000000  )

     number of k points=     1  Marzari-Vanderbilt smearing, width (Ry)=  0.0010
                       cart. coord. in units 2pi/alat
        k(    1) = (   0.0000000   0.0000000   0.0000000), wk =   1.0000000

                       cryst. coord.
        k(    1) = (   0.0000000   0.0000000   0.0000000), wk =   1.0000000

     Dense  grid:  1626001 G-vectors     FFT dimensions: ( 180, 180, 135)

     Smooth grid:   702581 G-vectors     FFT dimensions: ( 125, 125, 108)

     Dynamical RAM for                 wfc:      28.59 MB

     Dynamical RAM for     wfc (w. buffer):      85.76 MB

     Dynamical RAM for           str. fact:      12.41 MB

     Dynamical RAM for           local pot:       0.00 MB

     Dynamical RAM for          nlocal pot:      92.46 MB

     Dynamical RAM for                qrad:      19.73 MB

     Dynamical RAM for          rho,v,vnew:      58.92 MB

     Dynamical RAM for               rhoin:      19.64 MB

     Dynamical RAM for            rho*nmix:     132.32 MB

     Dynamical RAM for           G-vectors:      16.40 MB

     Dynamical RAM for          h,s,v(r/c):      12.00 MB

     Dynamical RAM for          <psi|beta>:       0.81 MB

     Dynamical RAM for                 psi:     114.35 MB

     Dynamical RAM for                hpsi:     114.35 MB

     Dynamical RAM for                spsi:     114.35 MB

     Dynamical RAM for      wfcinit/wfcrot:      93.90 MB

     Dynamical RAM for           addusdens:     975.89 MB

     Estimated static dynamical RAM per process >     488.30 MB

     Estimated max dynamical RAM per process >       1.43 GB

     Estimated total dynamical RAM >       8.58 GB
     Generating pointlists ...
     new r_m :   0.0252 (alat units)  0.5862 (a.u.) for type    1
     new r_m :   0.0476 (alat units)  1.1095 (a.u.) for type    2
     new r_m :   0.0476 (alat units)  1.1095 (a.u.) for type    3

     Check: negative core charge=   -0.000002

     Initial potential from superposition of free atoms

     starting charge  212.80506, renormalised to  213.00000

     negative rho (up, down):  7.471E-05 8.733E-03


---------------------------------------------------------------------------------
Carrying out rVV10 run using the following parameters:
Nqs =      20    Nr_points =    1024   r_max =   100.000
b_value =  6.30000    beta =  0.00901
     q_mesh =  0.00010000  0.00030000  0.00058939  0.00100810
               0.00161396  0.00249058  0.00375900  0.00559430
               0.00824984  0.01209221  0.01765183  0.02569619
               0.03733578  0.05417739  0.07854596  0.11380545
               0.16482331  0.23864234  0.34545298  0.50000000

Gradients computed in Reciprocal space

---------------------------------------------------------------------------------


     Starting wfcs are  208 randomized atomic wfcs

     total cpu time spent up to now is       90.8 secs

     Self-consistent Calculation

     iteration #  1     ecut=    70.00 Ry     beta= 0.70
     Davidson diagonalization with overlap
     ethr =  1.00E-02,  avg # of iterations =  4.0

     negative rho (up, down):  1.257E-04 8.528E-03

     total cpu time spent up to now is      256.9 secs

     total energy              =    -823.54052986 Ry
     Harris-Foulkes estimate   =    -824.90419849 Ry
     estimated scf accuracy    <       9.71208018 Ry

     total magnetization       =     5.00 Bohr mag/cell
     absolute magnetization    =     5.88 Bohr mag/cell

     iteration #  2     ecut=    70.00 Ry     beta= 0.70
     Davidson diagonalization with overlap
     ethr =  4.56E-03,  avg # of iterations =  6.0

     negative rho (up, down):  1.520E-04 8.065E-03

     total cpu time spent up to now is      391.1 secs

     total energy              =    -818.69325485 Ry
     Harris-Foulkes estimate   =    -827.07366045 Ry
     estimated scf accuracy    <      21.66650940 Ry

     total magnetization       =     6.53 Bohr mag/cell
     absolute magnetization    =     6.59 Bohr mag/cell

     iteration #  3     ecut=    70.00 Ry     beta= 0.70
     Davidson diagonalization with overlap
     ethr =  4.56E-03,  avg # of iterations =  4.0

     negative rho (up, down):  2.098E-04 5.670E-03

     total cpu time spent up to now is      563.5 secs

     total energy              =    -822.39981656 Ry
     Harris-Foulkes estimate   =    -830.32161824 Ry
     estimated scf accuracy    <      47.66645545 Ry

     total magnetization       =     1.00 Bohr mag/cell
     absolute magnetization    =     1.50 Bohr mag/cell

     iteration #  4     ecut=    70.00 Ry     beta= 0.70
     Davidson diagonalization with overlap
     ethr =  4.56E-03,  avg # of iterations =  3.5

     negative rho (up, down):  2.431E-04 1.080E-02

     total cpu time spent up to now is      688.2 secs

     total energy              =    -825.74971791 Ry
     Harris-Foulkes estimate   =    -826.00188107 Ry
     estimated scf accuracy    <       0.64188345 Ry

     total magnetization       =     3.00 Bohr mag/cell
     absolute magnetization    =     3.39 Bohr mag/cell

     iteration #  5     ecut=    70.00 Ry     beta= 0.70
     Davidson diagonalization with overlap
     ethr =  3.01E-04,  avg # of iterations =  6.0

     negative rho (up, down):  2.869E-04 1.628E-02

     total cpu time spent up to now is      830.8 secs

     total energy              =    -825.77943329 Ry
     Harris-Foulkes estimate   =    -825.98757806 Ry
     estimated scf accuracy    <       1.15145882 Ry

     total magnetization       =     3.02 Bohr mag/cell
     absolute magnetization    =     3.23 Bohr mag/cell

     iteration #  6     ecut=    70.00 Ry     beta= 0.70
     Davidson diagonalization with overlap
     ethr =  3.01E-04,  avg # of iterations =  3.5

     negative rho (up, down):  6.250E-04 6.889E-03

     total cpu time spent up to now is      939.6 secs

     total energy              =    -825.91686815 Ry
     Harris-Foulkes estimate   =    -825.96316021 Ry
     estimated scf accuracy    <       0.19291996 Ry

     total magnetization       =     3.00 Bohr mag/cell
     absolute magnetization    =     3.44 Bohr mag/cell

     iteration #  7     ecut=    70.00 Ry     beta= 0.70
     Davidson diagonalization with overlap
     ethr =  9.06E-05,  avg # of iterations =  5.0

     negative rho (up, down):  6.578E-04 7.854E-03

     total cpu time spent up to now is     1053.4 secs

     total energy              =    -825.93706912 Ry
     Harris-Foulkes estimate   =    -825.94712002 Ry
     estimated scf accuracy    <       0.05631849 Ry

     total magnetization       =     3.00 Bohr mag/cell
     absolute magnetization    =     3.61 Bohr mag/cell

     iteration #  8     ecut=    70.00 Ry     beta= 0.70
     Davidson diagonalization with overlap
     ethr =  2.64E-05,  avg # of iterations =  4.5

     negative rho (up, down):  6.162E-04 4.912E-03

     total cpu time spent up to now is     1161.3 secs

     total energy              =    -825.93954683 Ry
     Harris-Foulkes estimate   =    -825.94197108 Ry
     estimated scf accuracy    <       0.02534832 Ry

     total magnetization       =     3.00 Bohr mag/cell
     absolute magnetization    =     3.69 Bohr mag/cell

     iteration #  9     ecut=    70.00 Ry     beta= 0.70
     Davidson diagonalization with overlap
     ethr =  1.19E-05,  avg # of iterations =  2.0

     negative rho (up, down):  5.885E-04 4.300E-03

     total cpu time spent up to now is     1266.7 secs

     total energy              =    -825.94091338 Ry
     Harris-Foulkes estimate   =    -825.94131174 Ry
     estimated scf accuracy    <       0.00798725 Ry

     total magnetization       =     3.00 Bohr mag/cell
     absolute magnetization    =     3.76 Bohr mag/cell

     iteration # 10     ecut=    70.00 Ry     beta= 0.70
     Davidson diagonalization with overlap
     ethr =  3.75E-06,  avg # of iterations =  4.0

     negative rho (up, down):  5.769E-04 4.663E-03

     total cpu time spent up to now is     1373.8 secs

     total energy              =    -825.94167913 Ry
     Harris-Foulkes estimate   =    -825.94152533 Ry
     estimated scf accuracy    <       0.00213457 Ry

     total magnetization       =     3.00 Bohr mag/cell
     absolute magnetization    =     3.88 Bohr mag/cell

     iteration # 11     ecut=    70.00 Ry     beta= 0.70
     Davidson diagonalization with overlap
     ethr =  1.00E-06,  avg # of iterations =  6.5

     negative rho (up, down):  5.770E-04 4.727E-03

     total cpu time spent up to now is     1486.2 secs

     total energy              =    -825.94203530 Ry
     Harris-Foulkes estimate   =    -825.94194460 Ry
     estimated scf accuracy    <       0.00030665 Ry

     total magnetization       =     3.00 Bohr mag/cell
     absolute magnetization    =     4.01 Bohr mag/cell

     iteration # 12     ecut=    70.00 Ry     beta= 0.70
     Davidson diagonalization with overlap
     ethr =  1.44E-07,  avg # of iterations =  3.5

     negative rho (up, down):  5.828E-04 4.615E-03

     total cpu time spent up to now is     1617.9 secs

     total energy              =    -825.94218046 Ry
     Harris-Foulkes estimate   =    -825.94216026 Ry
     estimated scf accuracy    <       0.00005014 Ry

     total magnetization       =     3.00 Bohr mag/cell
     absolute magnetization    =     4.14 Bohr mag/cell

     iteration # 13     ecut=    70.00 Ry     beta= 0.70
     Davidson diagonalization with overlap
     ethr =  2.35E-08,  avg # of iterations =  3.0

     negative rho (up, down):  5.848E-04 4.612E-03

     total cpu time spent up to now is     1760.6 secs

     total energy              =    -825.94220331 Ry
     Harris-Foulkes estimate   =    -825.94220695 Ry
     estimated scf accuracy    <       0.00003258 Ry

     total magnetization       =     3.00 Bohr mag/cell
     absolute magnetization    =     4.21 Bohr mag/cell

     iteration # 14     ecut=    70.00 Ry     beta= 0.70
     Davidson diagonalization with overlap
     ethr =  1.53E-08,  avg # of iterations =  3.0

     negative rho (up, down):  5.894E-04 4.533E-03

     total cpu time spent up to now is     1872.1 secs

     total energy              =    -825.94221871 Ry
     Harris-Foulkes estimate   =    -825.94221077 Ry
     estimated scf accuracy    <       0.00001271 Ry

     total magnetization       =     3.00 Bohr mag/cell
     absolute magnetization    =     4.22 Bohr mag/cell

     iteration # 15     ecut=    70.00 Ry     beta= 0.70
     Davidson diagonalization with overlap
     ethr =  5.97E-09,  avg # of iterations =  3.0

     negative rho (up, down):  5.884E-04 4.567E-03

     total cpu time spent up to now is     2011.4 secs

     total energy              =    -825.94222911 Ry
     Harris-Foulkes estimate   =    -825.94222638 Ry
     estimated scf accuracy    <       0.00000392 Ry

     total magnetization       =     3.00 Bohr mag/cell
     absolute magnetization    =     4.26 Bohr mag/cell

     iteration # 16     ecut=    70.00 Ry     beta= 0.70
     Davidson diagonalization with overlap
     ethr =  1.84E-09,  avg # of iterations =  3.0

     negative rho (up, down):  5.886E-04 4.587E-03

     total cpu time spent up to now is     2153.0 secs

     total energy              =    -825.94223278 Ry
     Harris-Foulkes estimate   =    -825.94223193 Ry
     estimated scf accuracy    <       0.00000130 Ry

     total magnetization       =     3.00 Bohr mag/cell
     absolute magnetization    =     4.29 Bohr mag/cell

     iteration # 17     ecut=    70.00 Ry     beta= 0.70
     Davidson diagonalization with overlap
     ethr =  6.11E-10,  avg # of iterations =  3.0

     negative rho (up, down):  5.877E-04 4.603E-03

     Magnetic moment per site:
     atom:    1    charge:    0.2117    magn:    0.0002    constr:    0.0000
     atom:    2    charge:    0.2111    magn:    0.0001    constr:    0.0000
     atom:    3    charge:    1.7170    magn:   -0.0128    constr:    0.0000
     atom:    4    charge:    1.7156    magn:    0.0179    constr:    0.0000
     atom:    5    charge:    1.7177    magn:   -0.0097    constr:    0.0000
     atom:    6    charge:    1.7143    magn:    0.0062    constr:    0.0000
     atom:    7    charge:    1.7176    magn:   -0.0097    constr:    0.0000
     atom:    8    charge:    1.7155    magn:    0.0179    constr:    0.0000
     atom:    9    charge:    1.7169    magn:   -0.0128    constr:    0.0000
     atom:   10    charge:    1.7154    magn:    0.0576    constr:    0.0000
     atom:   11    charge:    1.7175    magn:   -0.0179    constr:    0.0000
     atom:   12    charge:    1.7155    magn:    0.0576    constr:    0.0000
     atom:   13    charge:    1.7175    magn:   -0.0179    constr:    0.0000
     atom:   14    charge:    1.7159    magn:    0.0460    constr:    0.0000
     atom:   15    charge:    1.7144    magn:   -0.0147    constr:    0.0000
     atom:   16    charge:    1.7125    magn:    0.0615    constr:    0.0000
     atom:   17    charge:    1.7236    magn:   -0.0141    constr:    0.0000
     atom:   18    charge:    1.7125    magn:    0.0615    constr:    0.0000
     atom:   19    charge:    1.7143    magn:   -0.0147    constr:    0.0000
     atom:   20    charge:    1.7158    magn:    0.0460    constr:    0.0000
     atom:   21    charge:    1.7174    magn:   -0.0179    constr:    0.0000
     atom:   22    charge:    1.7154    magn:    0.0576    constr:    0.0000
     atom:   23    charge:    1.7169    magn:   -0.0128    constr:    0.0000
     atom:   24    charge:    1.7155    magn:    0.0179    constr:    0.0000
     atom:   25    charge:    1.7144    magn:   -0.0147    constr:    0.0000
     atom:   26    charge:    1.7124    magn:    0.0615    constr:    0.0000
     atom:   27    charge:    1.8739    magn:   -0.0300    constr:    0.0000
     atom:   28    charge:   10.0212    magn:    0.7880    constr:    0.0000
     atom:   29    charge:    1.8739    magn:   -0.0300    constr:    0.0000
     atom:   30    charge:    1.7125    magn:    0.0615    constr:    0.0000
     atom:   31    charge:    1.7143    magn:   -0.0147    constr:    0.0000
     atom:   32    charge:    1.7155    magn:    0.0179    constr:    0.0000
     atom:   33    charge:    1.7176    magn:   -0.0097    constr:    0.0000
     atom:   34    charge:    1.7141    magn:    0.0126    constr:    0.0000
     atom:   35    charge:    1.7176    magn:   -0.0097    constr:    0.0000
     atom:   36    charge:    1.7142    magn:    0.0062    constr:    0.0000
     atom:   37    charge:    1.7235    magn:   -0.0140    constr:    0.0000
     atom:   38    charge:    1.7124    magn:    0.0615    constr:    0.0000
     atom:   39    charge:    1.8739    magn:   -0.0300    constr:    0.0000
     atom:   40    charge:    1.7125    magn:    0.0615    constr:    0.0000
     atom:   41    charge:    1.7236    magn:   -0.0141    constr:    0.0000
     atom:   42    charge:    1.7143    magn:    0.0062    constr:    0.0000
     atom:   43    charge:    1.7177    magn:   -0.0097    constr:    0.0000
     atom:   44    charge:    1.7142    magn:    0.0126    constr:    0.0000
     atom:   45    charge:    1.7232    magn:   -0.0070    constr:    0.0000
     atom:   46    charge:    1.7141    magn:    0.0126    constr:    0.0000
     atom:   47    charge:    1.7176    magn:   -0.0097    constr:    0.0000
     atom:   48    charge:    1.7155    magn:    0.0179    constr:    0.0000
     atom:   49    charge:    1.7144    magn:   -0.0147    constr:    0.0000
     atom:   50    charge:    1.7159    magn:    0.0460    constr:    0.0000
     atom:   51    charge:    1.7144    magn:   -0.0147    constr:    0.0000
     atom:   52    charge:    1.7156    magn:    0.0179    constr:    0.0000

     total cpu time spent up to now is     2297.7 secs

     End of self-consistent calculation

 ------ SPIN UP ------------


          k = 0.0000 0.0000 0.0000 ( 87777 PWs)   bands (ev):

   -80.7331 -50.2364 -50.2364 -49.1545 -19.7849 -18.9495 -18.9494 -18.8571
   -18.8372 -18.8372 -18.4950 -17.0868 -17.0868 -17.0810 -17.0022 -17.0022
   -16.6901 -16.2420 -16.2420 -16.1333 -16.0725 -16.0724 -15.3722 -14.1325
   -14.1322 -14.0656 -13.9988 -13.9987 -13.3332 -13.0732 -13.0732 -13.0457
   -12.7437 -12.7437 -12.3264 -11.8516 -11.8515 -11.6670 -11.3918 -11.3918
   -10.4787  -9.6849  -9.6847  -9.4467  -9.3274  -9.3273  -9.2327  -9.2054
    -9.2053  -9.1908  -8.7022  -8.7022  -8.1757  -8.1755  -8.0697  -7.9485
    -7.8407  -7.4346  -7.4344  -7.2042  -7.2039  -7.2017  -6.9279  -6.9279
    -6.8447  -6.8332  -6.8328  -6.7226  -6.5704  -6.5703  -6.5493  -6.5392
    -6.5293  -6.5291  -6.4836  -6.4754  -5.6537  -5.6535  -5.5326  -5.5326
    -5.3290  -5.3290  -5.0482  -4.9902  -4.8903  -4.7573  -4.7370  -4.7369
    -4.4154  -4.2382  -4.2379  -4.2296  -4.2296  -3.8969  -3.8967  -3.7994
    -3.6760  -3.6758  -3.1594  -2.7656  -2.7655  -1.9078  -1.8101  -1.8100
    -1.4868  -1.1262  -1.1259  -0.8657   0.8947   0.9574   0.9575   1.5579
     1.5579   1.5657   2.5084   2.7500   2.7502   2.8474   3.0168   3.0169
     3.3640   3.4650   3.4651   3.6332   3.6336   3.7400   3.7859   4.0988

     occupation numbers 
     1.0000   1.0000   1.0000   1.0000   1.0000   1.0000   1.0000   1.0000
     1.0000   1.0000   1.0000   1.0000   1.0000   1.0000   1.0000   1.0000
     1.0000   1.0000   1.0000   1.0000   1.0000   1.0000   1.0000   1.0000
     1.0000   1.0000   1.0000   1.0000   1.0000   1.0000   1.0000   1.0000
     1.0000   1.0000   1.0000   1.0000   1.0000   1.0000   1.0000   1.0000
     1.0000   1.0000   1.0000   1.0000   1.0000   1.0000   1.0000   1.0000
     1.0000   1.0000   1.0000   1.0000   1.0000   1.0000   1.0000   1.0000
     1.0000   1.0000   1.0000   1.0000   1.0000   1.0000   1.0000   1.0000
     1.0000   1.0000   1.0000   1.0000   1.0000   1.0000   1.0000   1.0000
     1.0000   1.0000   1.0000   1.0000   1.0000   1.0000   1.0000   1.0000
     1.0000   1.0000   1.0000   1.0000   1.0000   1.0000   1.0000   1.0000
     1.0000   1.0000   1.0000   1.0000   1.0000   1.0000   1.0000   1.0000
     1.0000   1.0000   1.0000   1.0000   1.0000   1.0000   1.0000   1.0000
     1.0000   1.0000   1.0000   1.0000   0.0000   0.0000   0.0000   0.0000
     0.0000   0.0000   0.0000   0.0000   0.0000   0.0000   0.0000   0.0000
     0.0000   0.0000   0.0000   0.0000   0.0000   0.0000   0.0000   0.0000

 ------ SPIN DOWN ----------


          k = 0.0000 0.0000 0.0000 ( 87777 PWs)   bands (ev):

   -79.3905 -49.1640 -49.1640 -47.3854 -19.7432 -18.9012 -18.9011 -18.8197
   -18.8108 -18.8107 -18.4300 -17.0517 -17.0494 -17.0494 -16.9463 -16.9463
   -16.6605 -16.1920 -16.1920 -16.1024 -16.0289 -16.0287 -15.3413 -14.0592
   -14.0590 -13.9972 -13.9887 -13.9886 -13.3399 -13.0468 -13.0468 -13.0132
   -12.7247 -12.7246 -12.2893 -11.8096 -11.8094 -11.6420 -11.3677 -11.3677
   -10.4411  -9.6169  -9.6167  -9.4158  -9.2925  -9.2924  -9.2167  -9.1809
    -9.1808  -9.1734  -8.6864  -8.6864  -8.1259  -8.1257  -8.0383  -7.8515
    -7.8226  -7.4185  -7.4183  -7.1454  -7.0087  -7.0083  -6.8660  -6.8660
    -6.7765  -6.7760  -6.7469  -6.7066  -6.5511  -6.5509  -6.5278  -6.5164
    -6.5163  -6.4779  -6.4663  -6.3938  -5.4942  -5.4941  -5.3656  -5.3655
    -5.2519  -5.2518  -4.9767  -4.8791  -4.6962  -4.6825  -4.6458  -4.6457
    -4.3385  -4.1078  -4.1075  -4.0230  -4.0230  -3.7610  -3.7609  -3.7120
    -3.6572  -3.6570  -3.0872  -2.5063  -2.5061  -1.7851  -1.7850  -1.7383
    -0.8298  -0.5275  -0.5273  -0.0868   0.9995   0.9996   1.0514   1.7317
     1.7370   1.7371   2.5446   2.8875   2.8877   2.9160   3.3050   3.3052
     3.5540   3.6519   3.6520   3.6817   3.6819   3.7450   3.7452   3.7563

     occupation numbers 
     1.0000   1.0000   1.0000   1.0000   1.0000   1.0000   1.0000   1.0000
     1.0000   1.0000   1.0000   1.0000   1.0000   1.0000   1.0000   1.0000
     1.0000   1.0000   1.0000   1.0000   1.0000   1.0000   1.0000   1.0000
     1.0000   1.0000   1.0000   1.0000   1.0000   1.0000   1.0000   1.0000
     1.0000   1.0000   1.0000   1.0000   1.0000   1.0000   1.0000   1.0000
     1.0000   1.0000   1.0000   1.0000   1.0000   1.0000   1.0000   1.0000
     1.0000   1.0000   1.0000   1.0000   1.0000   1.0000   1.0000   1.0000
     1.0000   1.0000   1.0000   1.0000   1.0000   1.0000   1.0000   1.0000
     1.0000   1.0000   1.0000   1.0000   1.0000   1.0000   1.0000   1.0000
     1.0000   1.0000   1.0000   1.0000   1.0000   1.0000   1.0000   1.0000
     1.0000   1.0000   1.0000   1.0000   1.0000   1.0000   1.0000   1.0000
     1.0000   1.0000   1.0000   1.0000   1.0000   1.0000   1.0000   1.0000
     1.0000   1.0000   1.0000   1.0000   1.0000   1.0000   1.0000   1.0000
     1.0000   0.0000   0.0000   0.0000   0.0000   0.0000   0.0000   0.0000
     0.0000   0.0000   0.0000   0.0000   0.0000   0.0000   0.0000   0.0000
     0.0000   0.0000   0.0000   0.0000   0.0000   0.0000   0.0000   0.0000

     the Fermi energy is    -0.6820 ev

!    total energy              =    -825.94223452 Ry
     Harris-Foulkes estimate   =    -825.94223487 Ry
     estimated scf accuracy    <       0.00000083 Ry

     The total energy is the sum of the following terms:

     one-electron contribution =   -2704.60865287 Ry
     hartree contribution      =    1397.07571035 Ry
     xc contribution           =    -259.64006713 Ry
     ewald contribution        =     741.23077512 Ry
     smearing contrib. (-TS)   =       0.00000000 Ry

     total magnetization       =     3.00 Bohr mag/cell
     absolute magnetization    =     4.31 Bohr mag/cell

     convergence has been achieved in  17 iterations

     Writing output data file distance-5.0.save/

     init_run     :     86.07s CPU     89.61s WALL (       1 calls)
     electrons    :   2174.02s CPU   2207.02s WALL (       1 calls)

     Called by init_run:
     wfcinit      :     53.37s CPU     53.73s WALL (       1 calls)
     wfcinit:atom :      0.07s CPU      0.12s WALL (       2 calls)
     wfcinit:wfcr :     52.87s CPU     53.16s WALL (       2 calls)
     potinit      :     13.20s CPU     14.78s WALL (       1 calls)
     hinit0       :      7.33s CPU      7.51s WALL (       1 calls)

     Called by electrons:
     c_bands      :   1469.91s CPU   1477.36s WALL (      17 calls)
     sum_band     :    414.00s CPU    424.86s WALL (      17 calls)
     v_of_rho     :    144.45s CPU    151.66s WALL (      18 calls)
     v_h          :      1.51s CPU      1.55s WALL (      18 calls)
     v_xc         :    142.94s CPU    150.11s WALL (      18 calls)
     newd         :    152.28s CPU    162.30s WALL (      18 calls)
     mix_rho      :      8.12s CPU      8.23s WALL (      17 calls)

     Called by c_bands:
     init_us_2    :      3.74s CPU      3.76s WALL (      70 calls)
     cegterg      :   1461.06s CPU   1468.47s WALL (      34 calls)

     Called by sum_band:
     sum_band:bec :      0.03s CPU      0.03s WALL (      34 calls)
     addusdens    :    252.13s CPU    262.02s WALL (      17 calls)

     Called by *egterg:
     h_psi        :    772.18s CPU    777.34s WALL (     171 calls)
     s_psi        :    257.26s CPU    257.47s WALL (     171 calls)
     g_psi        :      0.81s CPU      0.81s WALL (     135 calls)
     cdiaghg      :     15.44s CPU     15.49s WALL (     169 calls)
     cegterg:over :    193.78s CPU    193.97s WALL (     135 calls)
     cegterg:upda :    128.26s CPU    128.87s WALL (     135 calls)
     cegterg:last :     72.75s CPU     72.80s WALL (      34 calls)

     Called by h_psi:
     h_psi:pot    :    771.28s CPU    775.61s WALL (     171 calls)
     h_psi:calbec :    255.73s CPU    255.92s WALL (     171 calls)
     vloc_psi     :    258.38s CPU    262.36s WALL (     171 calls)
     add_vuspsi   :    257.17s CPU    257.33s WALL (     171 calls)

     General routines
     calbec       :    350.52s CPU    350.77s WALL (     205 calls)
     fft          :     83.42s CPU     86.02s WALL (    1344 calls)
     ffts         :      1.54s CPU      1.59s WALL (      70 calls)
     fftw         :    264.17s CPU    268.33s WALL (   27512 calls)
     interpolate  :      3.55s CPU      3.65s WALL (      36 calls)

     Parallel routines
     fft_scatt_xy :     65.92s CPU     66.57s WALL (   28926 calls)
     fft_scatt_yz :    108.73s CPU    113.79s WALL (   28926 calls)

     PWSCF        :  37m41.54s CPU  38m18.42s WALL


   This run was terminated on:  13:56:58   9Aug2022            

=------------------------------------------------------------------------------=
   JOB DONE.
=------------------------------------------------------------------------------=
