
     Program PWSCF v.6.4.1 starts on  9Aug2022 at 16:30:55 

     This program is part of the open-source Quantum ESPRESSO suite
     for quantum simulation of materials; please cite
         "P. Giannozzi et al., J. Phys.:Condens. Matter 21 395502 (2009);
         "P. Giannozzi et al., J. Phys.:Condens. Matter 29 465901 (2017);
          URL http://www.quantum-espresso.org", 
     in publications or presentations arising from this work. More details at
     http://www.quantum-espresso.org/quote

     Parallel version (MPI), running on     6 processors

     MPI processes distributed on     1 nodes
     R & G space division:  proc/nbgrp/npool/nimage =       6
     Reading input from distance-2.8.in

     Current dimensions of program PWSCF are:
     Max number of different atomic species (ntypx) = 10
     Max number of k-points (npk) =  40000
     Max angular momentum in pseudopotentials (lmaxx) =  3

     IMPORTANT: XC functional enforced from input :
     Exchange-correlation      = RVV10 ( 1  4 13  4 3 0)
     Any further DFT definition will be discarded
     Please, verify this is what you really want

               file H.pbe-rrkjus.UPF: wavefunction(s)  1S renormalized
               file Mn.pbe-spn-rrkjus_psl.0.3.1.UPF: wavefunction(s)  3D renormalized

     Subspace diagonalization in iterative solution of the eigenvalue problem:
     a serial algorithm will be used


     Parallelization info
     --------------------
     sticks:   dense  smooth     PW     G-vecs:    dense   smooth      PW
     Min        3051    1746    432               270999   117096   14629
     Max        3053    1747    437               271001   117099   14630
     Sum       18313   10477   2611              1626001   702581   87777



     bravais-lattice index     =            4
     lattice parameter (alat)  =      23.2937  a.u.
     unit-cell volume          =    8879.8548 (a.u.)^3
     number of atoms/cell      =           52
     number of atomic types    =            3
     number of electrons       =       213.00
     number of Kohn-Sham states=          128
     kinetic-energy cutoff     =      70.0000  Ry
     charge density cutoff     =     490.0000  Ry
     convergence threshold     =      1.0E-06
     mixing beta               =       0.7000
     number of iterations used =            8  plain     mixing
     Exchange-correlation      = RVV10 ( 1  4 13  4 3 0)

     celldm(1)=  23.293684  celldm(2)=   0.000000  celldm(3)=   0.811261
     celldm(4)=   0.000000  celldm(5)=   0.000000  celldm(6)=   0.000000

     crystal axes: (cart. coord. in units of alat)
               a(1) = (   1.000000   0.000000   0.000000 )  
               a(2) = (  -0.500000   0.866025   0.000000 )  
               a(3) = (   0.000000   0.000000   0.811261 )  

     reciprocal axes: (cart. coord. in units 2 pi/alat)
               b(1) = (  1.000000  0.577350 -0.000000 )  
               b(2) = (  0.000000  1.154701  0.000000 )  
               b(3) = (  0.000000 -0.000000  1.232649 )  


     PseudoPot. # 1 for H  read from file:
     /home/cristian/Escritorio/Proyecto_Grafeno/pseudopotenciales/H.pbe-rrkjus.UPF
     MD5 check sum: 7cc9d459525c9a0585f487a71c3c9563
     Pseudo is Ultrasoft, Zval =  1.0
     Generated by new atomic code, or converted to UPF format
     Using radial grid of 1061 points,  2 beta functions with: 
                l(1) =   0
                l(2) =   0
     Q(r) pseudized with 0 coefficients 


     PseudoPot. # 2 for C  read from file:
     /home/cristian/Escritorio/Proyecto_Grafeno/pseudopotenciales/C.pbe-n-rrkjus_psl.1.0.0.UPF
     MD5 check sum: 1fdd950c42eb37d8afe3dd2f8d12311e
     Pseudo is Ultrasoft + core correction, Zval =  4.0
     Generated using "atomic" code by A. Dal Corso v.6.3MaX
     Using radial grid of 1073 points,  4 beta functions with: 
                l(1) =   0
                l(2) =   0
                l(3) =   1
                l(4) =   1
     Q(r) pseudized with 0 coefficients 


     PseudoPot. # 3 for Mn read from file:
     /home/cristian/Escritorio/Proyecto_Grafeno/pseudopotenciales/Mn.pbe-spn-rrkjus_psl.0.3.1.UPF
     MD5 check sum: e1cac159bdd2ba70c18e85765a5d4279
     Pseudo is Ultrasoft + core correction, Zval = 15.0
     Generated using "atomic" code by A. Dal Corso v.6.2.2
     Using radial grid of 1187 points,  6 beta functions with: 
                l(1) =   0
                l(2) =   0
                l(3) =   1
                l(4) =   1
                l(5) =   2
                l(6) =   2
     Q(r) pseudized with 0 coefficients 


     vdW kernel table read from file rVV10_kernel_table
     MD5 check sum: b8e2538accc0c0b3206b45ba4daaba6c

     atomic species   valence    mass     pseudopotential
        H              1.00     1.00794     H ( 1.00)
        C              4.00    12.01070     C ( 1.00)
        Mn            15.00    54.93804     Mn( 1.00)

     Starting magnetic structure 
     atomic species   magnetization
        H            0.500
        C            0.300
        Mn           0.800

      2 Sym. Ops. (no inversion) found


                                    s                        frac. trans.

      isym =  1     identity                                     

 cryst.   s( 1) = (     1          0          0      )
                  (     0          1          0      )
                  (     0          0          1      )

 cart.    s( 1) = (  1.0000000  0.0000000  0.0000000 )
                  (  0.0000000  1.0000000  0.0000000 )
                  (  0.0000000  0.0000000  1.0000000 )


      isym =  2     inv. 180 deg rotation - cryst. axis [1,1,0]  

 cryst.   s( 2) = (     0         -1          0      )
                  (    -1          0          0      )
                  (     0          0          1      )

 cart.    s( 2) = (  0.5000000 -0.8660254  0.0000000 )
                  ( -0.8660254 -0.5000000  0.0000000 )
                  (  0.0000000  0.0000000  1.0000000 )


     point group C_s (m)    
     there are  2 classes
     the character table:

       E     s    
A'     1.00  1.00
A''    1.00 -1.00

     the symmetry operations in each class and the name of the first element:

     E        1
          identity                                               
     s        2
          inv. 180 deg rotation - cryst. axis [1,1,0]            

   Cartesian axes

     site n.     atom                  positions (alat units)
         1           H   tau(   1) = (   0.2000000   0.4618802   0.2271531  )
         2           H   tau(   2) = (   0.2000000   0.4618802   0.2881658  )
         3           C   tau(   3) = (   0.0000000   0.0000000   0.0000000  )
         4           C   tau(   4) = (   0.0000000   0.1154701   0.0000000  )
         5           C   tau(   5) = (  -0.1000000   0.1732051   0.0000000  )
         6           C   tau(   6) = (  -0.1000000   0.2886751   0.0000000  )
         7           C   tau(   7) = (  -0.2000000   0.3464102   0.0000000  )
         8           C   tau(   8) = (  -0.2000000   0.4618802   0.0000000  )
         9           C   tau(   9) = (  -0.3000000   0.5196152   0.0000000  )
        10           C   tau(  10) = (  -0.3000000   0.6350853   0.0000000  )
        11           C   tau(  11) = (  -0.4000000   0.6928203   0.0000000  )
        12           C   tau(  12) = (  -0.4000000   0.8082904   0.0000000  )
        13           C   tau(  13) = (   0.2000000   0.0000000   0.0000000  )
        14           C   tau(  14) = (   0.2000000   0.1154701   0.0000000  )
        15           C   tau(  15) = (   0.1000000   0.1732051   0.0000000  )
        16           C   tau(  16) = (   0.1000000   0.2886751   0.0000000  )
        17           C   tau(  17) = (   0.0000000   0.3464102   0.0000000  )
        18           C   tau(  18) = (   0.0000000   0.4618802   0.0000000  )
        19           C   tau(  19) = (  -0.1000000   0.5196152   0.0000000  )
        20           C   tau(  20) = (  -0.1000000   0.6350853   0.0000000  )
        21           C   tau(  21) = (  -0.2000000   0.6928203   0.0000000  )
        22           C   tau(  22) = (  -0.2000000   0.8082904   0.0000000  )
        23           C   tau(  23) = (   0.4000000   0.0000000   0.0000000  )
        24           C   tau(  24) = (   0.4000000   0.1154701   0.0000000  )
        25           C   tau(  25) = (   0.3000000   0.1732051   0.0000000  )
        26           C   tau(  26) = (   0.3000000   0.2886751   0.0000000  )
        27           C   tau(  27) = (   0.2000000   0.3464102   0.0000000  )
        28           Mn  tau(  28) = (   0.2000000   0.4618802   0.0000000  )
        29           C   tau(  29) = (   0.1000000   0.5196152   0.0000000  )
        30           C   tau(  30) = (   0.1000000   0.6350853   0.0000000  )
        31           C   tau(  31) = (   0.0000000   0.6928203   0.0000000  )
        32           C   tau(  32) = (   0.0000000   0.8082904   0.0000000  )
        33           C   tau(  33) = (   0.6000000   0.0000000   0.0000000  )
        34           C   tau(  34) = (   0.6000000   0.1154701   0.0000000  )
        35           C   tau(  35) = (   0.5000000   0.1732051   0.0000000  )
        36           C   tau(  36) = (   0.5000000   0.2886751   0.0000000  )
        37           C   tau(  37) = (   0.4000000   0.3464102   0.0000000  )
        38           C   tau(  38) = (   0.4000000   0.4618802   0.0000000  )
        39           C   tau(  39) = (   0.3000000   0.5196152   0.0000000  )
        40           C   tau(  40) = (   0.3000000   0.6350853   0.0000000  )
        41           C   tau(  41) = (   0.2000000   0.6928203   0.0000000  )
        42           C   tau(  42) = (   0.2000000   0.8082904   0.0000000  )
        43           C   tau(  43) = (   0.8000000   0.0000000   0.0000000  )
        44           C   tau(  44) = (   0.8000000   0.1154701   0.0000000  )
        45           C   tau(  45) = (   0.7000000   0.1732051   0.0000000  )
        46           C   tau(  46) = (   0.7000000   0.2886751   0.0000000  )
        47           C   tau(  47) = (   0.6000000   0.3464102   0.0000000  )
        48           C   tau(  48) = (   0.6000000   0.4618802   0.0000000  )
        49           C   tau(  49) = (   0.5000000   0.5196152   0.0000000  )
        50           C   tau(  50) = (   0.5000000   0.6350853   0.0000000  )
        51           C   tau(  51) = (   0.4000000   0.6928203   0.0000000  )
        52           C   tau(  52) = (   0.4000000   0.8082904   0.0000000  )

   Crystallographic axes

     site n.     atom                  positions (cryst. coord.)
         1           H   tau(   1) = (  0.4666667  0.5333333  0.2800000  )
         2           H   tau(   2) = (  0.4666667  0.5333333  0.3552072  )
         3           C   tau(   3) = (  0.0000000  0.0000000  0.0000000  )
         4           C   tau(   4) = (  0.0666667  0.1333333  0.0000000  )
         5           C   tau(   5) = (  0.0000000  0.2000000  0.0000000  )
         6           C   tau(   6) = (  0.0666667  0.3333333  0.0000000  )
         7           C   tau(   7) = (  0.0000000  0.4000000  0.0000000  )
         8           C   tau(   8) = (  0.0666667  0.5333333  0.0000000  )
         9           C   tau(   9) = (  0.0000000  0.6000000  0.0000000  )
        10           C   tau(  10) = (  0.0666667  0.7333333  0.0000000  )
        11           C   tau(  11) = (  0.0000000  0.8000000  0.0000000  )
        12           C   tau(  12) = (  0.0666667  0.9333333  0.0000000  )
        13           C   tau(  13) = (  0.2000000  0.0000000  0.0000000  )
        14           C   tau(  14) = (  0.2666667  0.1333333  0.0000000  )
        15           C   tau(  15) = (  0.2000000  0.2000000  0.0000000  )
        16           C   tau(  16) = (  0.2666667  0.3333333  0.0000000  )
        17           C   tau(  17) = (  0.2000000  0.4000000  0.0000000  )
        18           C   tau(  18) = (  0.2666667  0.5333333  0.0000000  )
        19           C   tau(  19) = (  0.2000000  0.6000000  0.0000000  )
        20           C   tau(  20) = (  0.2666667  0.7333333  0.0000000  )
        21           C   tau(  21) = (  0.2000000  0.8000000  0.0000000  )
        22           C   tau(  22) = (  0.2666667  0.9333333  0.0000000  )
        23           C   tau(  23) = (  0.4000000  0.0000000  0.0000000  )
        24           C   tau(  24) = (  0.4666667  0.1333333  0.0000000  )
        25           C   tau(  25) = (  0.4000000  0.2000000  0.0000000  )
        26           C   tau(  26) = (  0.4666667  0.3333333  0.0000000  )
        27           C   tau(  27) = (  0.4000000  0.4000000  0.0000000  )
        28           Mn  tau(  28) = (  0.4666667  0.5333333  0.0000000  )
        29           C   tau(  29) = (  0.4000000  0.6000000  0.0000000  )
        30           C   tau(  30) = (  0.4666667  0.7333333  0.0000000  )
        31           C   tau(  31) = (  0.4000000  0.8000000  0.0000000  )
        32           C   tau(  32) = (  0.4666667  0.9333333  0.0000000  )
        33           C   tau(  33) = (  0.6000000  0.0000000  0.0000000  )
        34           C   tau(  34) = (  0.6666667  0.1333333  0.0000000  )
        35           C   tau(  35) = (  0.6000000  0.2000000  0.0000000  )
        36           C   tau(  36) = (  0.6666667  0.3333333  0.0000000  )
        37           C   tau(  37) = (  0.6000000  0.4000000  0.0000000  )
        38           C   tau(  38) = (  0.6666667  0.5333333  0.0000000  )
        39           C   tau(  39) = (  0.6000000  0.6000000  0.0000000  )
        40           C   tau(  40) = (  0.6666667  0.7333333  0.0000000  )
        41           C   tau(  41) = (  0.6000000  0.8000000  0.0000000  )
        42           C   tau(  42) = (  0.6666667  0.9333333  0.0000000  )
        43           C   tau(  43) = (  0.8000000  0.0000000  0.0000000  )
        44           C   tau(  44) = (  0.8666667  0.1333333  0.0000000  )
        45           C   tau(  45) = (  0.8000000  0.2000000  0.0000000  )
        46           C   tau(  46) = (  0.8666667  0.3333333  0.0000000  )
        47           C   tau(  47) = (  0.8000000  0.4000000  0.0000000  )
        48           C   tau(  48) = (  0.8666667  0.5333333  0.0000000  )
        49           C   tau(  49) = (  0.8000000  0.6000000  0.0000000  )
        50           C   tau(  50) = (  0.8666667  0.7333333  0.0000000  )
        51           C   tau(  51) = (  0.8000000  0.8000000  0.0000000  )
        52           C   tau(  52) = (  0.8666667  0.9333333  0.0000000  )

     number of k points=     1  Marzari-Vanderbilt smearing, width (Ry)=  0.0010
                       cart. coord. in units 2pi/alat
        k(    1) = (   0.0000000   0.0000000   0.0000000), wk =   1.0000000

                       cryst. coord.
        k(    1) = (   0.0000000   0.0000000   0.0000000), wk =   1.0000000

     Dense  grid:  1626001 G-vectors     FFT dimensions: ( 180, 180, 135)

     Smooth grid:   702581 G-vectors     FFT dimensions: ( 125, 125, 108)

     Dynamical RAM for                 wfc:      28.59 MB

     Dynamical RAM for     wfc (w. buffer):      85.76 MB

     Dynamical RAM for           str. fact:      12.41 MB

     Dynamical RAM for           local pot:       0.00 MB

     Dynamical RAM for          nlocal pot:      92.46 MB

     Dynamical RAM for                qrad:      19.73 MB

     Dynamical RAM for          rho,v,vnew:      58.92 MB

     Dynamical RAM for               rhoin:      19.64 MB

     Dynamical RAM for            rho*nmix:     132.32 MB

     Dynamical RAM for           G-vectors:      16.40 MB

     Dynamical RAM for          h,s,v(r/c):      12.00 MB

     Dynamical RAM for          <psi|beta>:       0.81 MB

     Dynamical RAM for                 psi:     114.35 MB

     Dynamical RAM for                hpsi:     114.35 MB

     Dynamical RAM for                spsi:     114.35 MB

     Dynamical RAM for      wfcinit/wfcrot:      93.90 MB

     Dynamical RAM for           addusdens:     975.89 MB

     Estimated static dynamical RAM per process >     488.30 MB

     Estimated max dynamical RAM per process >       1.43 GB

     Estimated total dynamical RAM >       8.58 GB
     Generating pointlists ...
     new r_m :   0.0252 (alat units)  0.5862 (a.u.) for type    1
     new r_m :   0.0476 (alat units)  1.1095 (a.u.) for type    2
     new r_m :   0.0476 (alat units)  1.1095 (a.u.) for type    3

     Check: negative core charge=   -0.000002

     Initial potential from superposition of free atoms

     starting charge  212.80506, renormalised to  213.00000

     negative rho (up, down):  6.826E-05 1.015E-02


---------------------------------------------------------------------------------
Carrying out rVV10 run using the following parameters:
Nqs =      20    Nr_points =    1024   r_max =   100.000
b_value =  6.30000    beta =  0.00901
     q_mesh =  0.00010000  0.00030000  0.00058939  0.00100810
               0.00161396  0.00249058  0.00375900  0.00559430
               0.00824984  0.01209221  0.01765183  0.02569619
               0.03733578  0.05417739  0.07854596  0.11380545
               0.16482331  0.23864234  0.34545298  0.50000000

Gradients computed in Reciprocal space

---------------------------------------------------------------------------------


     Starting wfcs are  208 randomized atomic wfcs

     total cpu time spent up to now is       78.3 secs

     Self-consistent Calculation

     iteration #  1     ecut=    70.00 Ry     beta= 0.70
     Davidson diagonalization with overlap
     ethr =  1.00E-02,  avg # of iterations =  2.5

     negative rho (up, down):  1.398E-04 1.023E-02

     total cpu time spent up to now is      223.5 secs

     total energy              =    -822.11671034 Ry
     Harris-Foulkes estimate   =    -824.93669727 Ry
     estimated scf accuracy    <      11.03131674 Ry

     total magnetization       =     7.00 Bohr mag/cell
     absolute magnetization    =     7.35 Bohr mag/cell

     iteration #  2     ecut=    70.00 Ry     beta= 0.70
     Davidson diagonalization with overlap
     ethr =  5.18E-03,  avg # of iterations =  6.0

     negative rho (up, down):  1.723E-04 1.097E-02

     total cpu time spent up to now is      357.1 secs

     total energy              =    -812.70540477 Ry
     Harris-Foulkes estimate   =    -833.51178132 Ry
     estimated scf accuracy    <      88.27492704 Ry

     total magnetization       =     3.00 Bohr mag/cell
     absolute magnetization    =     3.21 Bohr mag/cell

     iteration #  3     ecut=    70.00 Ry     beta= 0.70
     Davidson diagonalization with overlap
     ethr =  5.18E-03,  avg # of iterations =  4.5

     negative rho (up, down):  2.204E-04 8.217E-03

     total cpu time spent up to now is      550.5 secs

     total energy              =    -823.87777643 Ry
     Harris-Foulkes estimate   =    -827.18321380 Ry
     estimated scf accuracy    <      19.23435134 Ry

     total magnetization       =     7.00 Bohr mag/cell
     absolute magnetization    =     7.05 Bohr mag/cell

     iteration #  4     ecut=    70.00 Ry     beta= 0.70
     Davidson diagonalization with overlap
     ethr =  5.18E-03,  avg # of iterations =  3.5

     negative rho (up, down):  2.578E-04 9.086E-03

     total cpu time spent up to now is      656.8 secs

     total energy              =    -825.35310806 Ry
     Harris-Foulkes estimate   =    -826.37672121 Ry
     estimated scf accuracy    <       3.05564775 Ry

     total magnetization       =     3.00 Bohr mag/cell
     absolute magnetization    =     3.41 Bohr mag/cell

     iteration #  5     ecut=    70.00 Ry     beta= 0.70
     Davidson diagonalization with overlap
     ethr =  1.43E-03,  avg # of iterations =  4.5

     negative rho (up, down):  3.280E-04 1.691E-02

     total cpu time spent up to now is      777.4 secs

     total energy              =    -825.72244667 Ry
     Harris-Foulkes estimate   =    -826.00280820 Ry
     estimated scf accuracy    <       1.21898648 Ry

     total magnetization       =     3.00 Bohr mag/cell
     absolute magnetization    =     3.25 Bohr mag/cell

     iteration #  6     ecut=    70.00 Ry     beta= 0.70
     Davidson diagonalization with overlap
     ethr =  5.72E-04,  avg # of iterations =  3.0

     negative rho (up, down):  6.101E-04 4.988E-03

     total cpu time spent up to now is      884.1 secs

     total energy              =    -825.92170455 Ry
     Harris-Foulkes estimate   =    -825.95731406 Ry
     estimated scf accuracy    <       0.16228801 Ry

     total magnetization       =     3.00 Bohr mag/cell
     absolute magnetization    =     3.38 Bohr mag/cell

     iteration #  7     ecut=    70.00 Ry     beta= 0.70
     Davidson diagonalization with overlap
     ethr =  7.62E-05,  avg # of iterations =  6.0

     negative rho (up, down):  6.002E-04 5.379E-03

     total cpu time spent up to now is      997.9 secs

     total energy              =    -825.93655185 Ry
     Harris-Foulkes estimate   =    -825.94385814 Ry
     estimated scf accuracy    <       0.04766270 Ry

     total magnetization       =     3.00 Bohr mag/cell
     absolute magnetization    =     3.54 Bohr mag/cell

     iteration #  8     ecut=    70.00 Ry     beta= 0.70
     Davidson diagonalization with overlap
     ethr =  2.24E-05,  avg # of iterations =  7.5

     negative rho (up, down):  5.831E-04 6.356E-03

     total cpu time spent up to now is     1109.5 secs

     total energy              =    -825.94047258 Ry
     Harris-Foulkes estimate   =    -825.94317433 Ry
     estimated scf accuracy    <       0.01659638 Ry

     total magnetization       =     3.00 Bohr mag/cell
     absolute magnetization    =     3.63 Bohr mag/cell

     iteration #  9     ecut=    70.00 Ry     beta= 0.70
     Davidson diagonalization with overlap
     ethr =  7.79E-06,  avg # of iterations =  6.0

     negative rho (up, down):  5.966E-04 6.201E-03

     total cpu time spent up to now is     1221.9 secs

     total energy              =    -825.94331705 Ry
     Harris-Foulkes estimate   =    -825.94296702 Ry
     estimated scf accuracy    <       0.00237167 Ry

     total magnetization       =     3.00 Bohr mag/cell
     absolute magnetization    =     3.77 Bohr mag/cell

     iteration # 10     ecut=    70.00 Ry     beta= 0.70
     Davidson diagonalization with overlap
     ethr =  1.11E-06,  avg # of iterations =  3.0

     negative rho (up, down):  6.305E-04 5.164E-03

     total cpu time spent up to now is     1341.7 secs

     total energy              =    -825.94406407 Ry
     Harris-Foulkes estimate   =    -825.94387836 Ry
     estimated scf accuracy    <       0.00025037 Ry

     total magnetization       =     3.00 Bohr mag/cell
     absolute magnetization    =     3.94 Bohr mag/cell

     iteration # 11     ecut=    70.00 Ry     beta= 0.70
     Davidson diagonalization with overlap
     ethr =  1.18E-07,  avg # of iterations =  3.0

     negative rho (up, down):  6.353E-04 5.158E-03

     total cpu time spent up to now is     1481.2 secs

     total energy              =    -825.94422317 Ry
     Harris-Foulkes estimate   =    -825.94419394 Ry
     estimated scf accuracy    <       0.00010440 Ry

     total magnetization       =     3.00 Bohr mag/cell
     absolute magnetization    =     4.07 Bohr mag/cell

     iteration # 12     ecut=    70.00 Ry     beta= 0.70
     Davidson diagonalization with overlap
     ethr =  4.90E-08,  avg # of iterations =  3.0

     negative rho (up, down):  6.434E-04 5.174E-03

     total cpu time spent up to now is     1608.0 secs

     total energy              =    -825.94429098 Ry
     Harris-Foulkes estimate   =    -825.94425682 Ry
     estimated scf accuracy    <       0.00002588 Ry

     total magnetization       =     3.00 Bohr mag/cell
     absolute magnetization    =     4.14 Bohr mag/cell

     iteration # 13     ecut=    70.00 Ry     beta= 0.70
     Davidson diagonalization with overlap
     ethr =  1.22E-08,  avg # of iterations =  3.5

     negative rho (up, down):  6.423E-04 5.197E-03

     total cpu time spent up to now is     1750.5 secs

     total energy              =    -825.94432370 Ry
     Harris-Foulkes estimate   =    -825.94431137 Ry
     estimated scf accuracy    <       0.00001307 Ry

     total magnetization       =     3.00 Bohr mag/cell
     absolute magnetization    =     4.21 Bohr mag/cell

     iteration # 14     ecut=    70.00 Ry     beta= 0.70
     Davidson diagonalization with overlap
     ethr =  6.14E-09,  avg # of iterations =  3.0

     negative rho (up, down):  6.432E-04 5.214E-03

     total cpu time spent up to now is     1890.3 secs

     total energy              =    -825.94433614 Ry
     Harris-Foulkes estimate   =    -825.94433400 Ry
     estimated scf accuracy    <       0.00000789 Ry

     total magnetization       =     3.00 Bohr mag/cell
     absolute magnetization    =     4.26 Bohr mag/cell

     iteration # 15     ecut=    70.00 Ry     beta= 0.70
     Davidson diagonalization with overlap
     ethr =  3.70E-09,  avg # of iterations =  3.0

     negative rho (up, down):  6.425E-04 5.237E-03

     total cpu time spent up to now is     2031.3 secs

     total energy              =    -825.94434183 Ry
     Harris-Foulkes estimate   =    -825.94434110 Ry
     estimated scf accuracy    <       0.00000506 Ry

     total magnetization       =     3.00 Bohr mag/cell
     absolute magnetization    =     4.28 Bohr mag/cell

     iteration # 16     ecut=    70.00 Ry     beta= 0.70
     Davidson diagonalization with overlap
     ethr =  2.37E-09,  avg # of iterations =  3.5

     negative rho (up, down):  6.419E-04 5.260E-03

     Magnetic moment per site:
     atom:    1    charge:    0.2109    magn:   -0.0003    constr:    0.0000
     atom:    2    charge:    0.2113    magn:    0.0044    constr:    0.0000
     atom:    3    charge:    1.7171    magn:   -0.0127    constr:    0.0000
     atom:    4    charge:    1.7156    magn:    0.0179    constr:    0.0000
     atom:    5    charge:    1.7177    magn:   -0.0096    constr:    0.0000
     atom:    6    charge:    1.7142    magn:    0.0061    constr:    0.0000
     atom:    7    charge:    1.7177    magn:   -0.0096    constr:    0.0000
     atom:    8    charge:    1.7156    magn:    0.0179    constr:    0.0000
     atom:    9    charge:    1.7170    magn:   -0.0127    constr:    0.0000
     atom:   10    charge:    1.7155    magn:    0.0575    constr:    0.0000
     atom:   11    charge:    1.7174    magn:   -0.0179    constr:    0.0000
     atom:   12    charge:    1.7154    magn:    0.0575    constr:    0.0000
     atom:   13    charge:    1.7174    magn:   -0.0179    constr:    0.0000
     atom:   14    charge:    1.7159    magn:    0.0460    constr:    0.0000
     atom:   15    charge:    1.7144    magn:   -0.0147    constr:    0.0000
     atom:   16    charge:    1.7124    magn:    0.0615    constr:    0.0000
     atom:   17    charge:    1.7235    magn:   -0.0140    constr:    0.0000
     atom:   18    charge:    1.7124    magn:    0.0615    constr:    0.0000
     atom:   19    charge:    1.7144    magn:   -0.0147    constr:    0.0000
     atom:   20    charge:    1.7159    magn:    0.0460    constr:    0.0000
     atom:   21    charge:    1.7174    magn:   -0.0179    constr:    0.0000
     atom:   22    charge:    1.7155    magn:    0.0575    constr:    0.0000
     atom:   23    charge:    1.7170    magn:   -0.0127    constr:    0.0000
     atom:   24    charge:    1.7156    magn:    0.0179    constr:    0.0000
     atom:   25    charge:    1.7144    magn:   -0.0147    constr:    0.0000
     atom:   26    charge:    1.7123    magn:    0.0615    constr:    0.0000
     atom:   27    charge:    1.8740    magn:   -0.0298    constr:    0.0000
     atom:   28    charge:   10.0208    magn:    0.7880    constr:    0.0000
     atom:   29    charge:    1.8741    magn:   -0.0298    constr:    0.0000
     atom:   30    charge:    1.7124    magn:    0.0615    constr:    0.0000
     atom:   31    charge:    1.7144    magn:   -0.0147    constr:    0.0000
     atom:   32    charge:    1.7156    magn:    0.0179    constr:    0.0000
     atom:   33    charge:    1.7177    magn:   -0.0096    constr:    0.0000
     atom:   34    charge:    1.7142    magn:    0.0125    constr:    0.0000
     atom:   35    charge:    1.7176    magn:   -0.0096    constr:    0.0000
     atom:   36    charge:    1.7142    magn:    0.0061    constr:    0.0000
     atom:   37    charge:    1.7234    magn:   -0.0140    constr:    0.0000
     atom:   38    charge:    1.7123    magn:    0.0615    constr:    0.0000
     atom:   39    charge:    1.8740    magn:   -0.0298    constr:    0.0000
     atom:   40    charge:    1.7124    magn:    0.0615    constr:    0.0000
     atom:   41    charge:    1.7235    magn:   -0.0140    constr:    0.0000
     atom:   42    charge:    1.7142    magn:    0.0061    constr:    0.0000
     atom:   43    charge:    1.7177    magn:   -0.0096    constr:    0.0000
     atom:   44    charge:    1.7142    magn:    0.0125    constr:    0.0000
     atom:   45    charge:    1.7233    magn:   -0.0069    constr:    0.0000
     atom:   46    charge:    1.7142    magn:    0.0125    constr:    0.0000
     atom:   47    charge:    1.7176    magn:   -0.0096    constr:    0.0000
     atom:   48    charge:    1.7156    magn:    0.0179    constr:    0.0000
     atom:   49    charge:    1.7144    magn:   -0.0147    constr:    0.0000
     atom:   50    charge:    1.7159    magn:    0.0460    constr:    0.0000
     atom:   51    charge:    1.7144    magn:   -0.0147    constr:    0.0000
     atom:   52    charge:    1.7156    magn:    0.0179    constr:    0.0000

     total cpu time spent up to now is     2174.7 secs

     End of self-consistent calculation

 ------ SPIN UP ------------


          k = 0.0000 0.0000 0.0000 ( 87777 PWs)   bands (ev):

   -80.7239 -50.2278 -50.2278 -49.1454 -19.7820 -18.9466 -18.9461 -18.8545
   -18.8344 -18.8339 -18.4915 -17.0837 -17.0837 -17.0780 -16.9990 -16.9990
   -16.6876 -16.2387 -16.2386 -16.1303 -16.0695 -16.0694 -15.3692 -14.1290
   -14.1289 -14.0621 -13.9961 -13.9960 -13.3305 -13.0701 -13.0701 -13.0428
   -12.7407 -12.7407 -12.3234 -11.8483 -11.8483 -11.6638 -11.3887 -11.3886
   -10.4761  -9.6810  -9.6810  -9.4433  -9.3241  -9.3240  -9.2299  -9.2027
    -9.2026  -9.1883  -8.6993  -8.6993  -8.1722  -8.1721  -8.0665  -7.9505
    -7.8372  -7.4318  -7.4317  -7.2014  -7.2011  -7.1994  -6.9247  -6.9245
    -6.8660  -6.8306  -6.8304  -6.7355  -6.7190  -6.5675  -6.5673  -6.5364
    -6.5263  -6.5262  -6.4809  -6.3986  -5.6513  -5.6511  -5.5295  -5.5294
    -5.3257  -5.3257  -5.0417  -4.9872  -4.8872  -4.7543  -4.7340  -4.7340
    -4.4072  -4.2355  -4.2354  -4.2247  -4.2246  -3.8938  -3.8937  -3.7964
    -3.6732  -3.6731  -3.1477  -2.7621  -2.7621  -1.9043  -1.8074  -1.8073
    -1.4495  -1.1220  -1.1218  -0.8583   0.8978   0.9599   0.9600   1.5607
     1.5608   1.5685   2.5025   2.7526   2.7527   2.8508   3.0082   3.0082
     3.4246   3.4655   3.4655   3.6442   3.6443   3.7339   3.7340   3.7394

     occupation numbers 
     1.0000   1.0000   1.0000   1.0000   1.0000   1.0000   1.0000   1.0000
     1.0000   1.0000   1.0000   1.0000   1.0000   1.0000   1.0000   1.0000
     1.0000   1.0000   1.0000   1.0000   1.0000   1.0000   1.0000   1.0000
     1.0000   1.0000   1.0000   1.0000   1.0000   1.0000   1.0000   1.0000
     1.0000   1.0000   1.0000   1.0000   1.0000   1.0000   1.0000   1.0000
     1.0000   1.0000   1.0000   1.0000   1.0000   1.0000   1.0000   1.0000
     1.0000   1.0000   1.0000   1.0000   1.0000   1.0000   1.0000   1.0000
     1.0000   1.0000   1.0000   1.0000   1.0000   1.0000   1.0000   1.0000
     1.0000   1.0000   1.0000   1.0000   1.0000   1.0000   1.0000   1.0000
     1.0000   1.0000   1.0000   1.0000   1.0000   1.0000   1.0000   1.0000
     1.0000   1.0000   1.0000   1.0000   1.0000   1.0000   1.0000   1.0000
     1.0000   1.0000   1.0000   1.0000   1.0000   1.0000   1.0000   1.0000
     1.0000   1.0000   1.0000   1.0000   1.0000   1.0000   1.0000   1.0000
     1.0000   1.0000   1.0000   1.0000   0.0000   0.0000   0.0000   0.0000
     0.0000   0.0000   0.0000   0.0000   0.0000   0.0000   0.0000   0.0000
     0.0000   0.0000   0.0000   0.0000   0.0000   0.0000   0.0000   0.0000

 ------ SPIN DOWN ----------


          k = 0.0000 0.0000 0.0000 ( 87777 PWs)   bands (ev):

   -79.3817 -49.1555 -49.1555 -47.3776 -19.7403 -18.8984 -18.8980 -18.8171
   -18.8079 -18.8074 -18.4265 -17.0488 -17.0463 -17.0463 -16.9431 -16.9431
   -16.6581 -16.1887 -16.1886 -16.0993 -16.0259 -16.0258 -15.3384 -14.0558
   -14.0557 -13.9937 -13.9860 -13.9859 -13.3370 -13.0438 -13.0437 -13.0102
   -12.7217 -12.7216 -12.2863 -11.8063 -11.8062 -11.6388 -11.3646 -11.3645
   -10.4386  -9.6130  -9.6130  -9.4125  -9.2892  -9.2892  -9.2139  -9.1782
    -9.1781  -9.1709  -8.6835  -8.6834  -8.1224  -8.1224  -8.0352  -7.8530
    -7.8192  -7.4156  -7.4156  -7.1437  -7.0062  -7.0059  -6.8629  -6.8627
    -6.7738  -6.7736  -6.7520  -6.7030  -6.6636  -6.5482  -6.5480  -6.5250
    -6.5133  -6.5133  -6.4635  -6.2783  -5.4912  -5.4911  -5.3644  -5.3642
    -5.2486  -5.2485  -4.9737  -4.8759  -4.6907  -4.6796  -4.6428  -4.6428
    -4.3315  -4.1053  -4.1053  -4.0179  -4.0178  -3.7579  -3.7578  -3.7091
    -3.6543  -3.6543  -3.0769  -2.5033  -2.5032  -1.7825  -1.7824  -1.7349
    -0.8251  -0.5241  -0.5238  -0.0659   1.0019   1.0020   1.0547   1.7319
     1.7400   1.7400   2.5317   2.8900   2.8901   2.9193   3.2901   3.2901
     3.5915   3.6506   3.6507   3.6992   3.6993   3.7458   3.7458   3.7565

     occupation numbers 
     1.0000   1.0000   1.0000   1.0000   1.0000   1.0000   1.0000   1.0000
     1.0000   1.0000   1.0000   1.0000   1.0000   1.0000   1.0000   1.0000
     1.0000   1.0000   1.0000   1.0000   1.0000   1.0000   1.0000   1.0000
     1.0000   1.0000   1.0000   1.0000   1.0000   1.0000   1.0000   1.0000
     1.0000   1.0000   1.0000   1.0000   1.0000   1.0000   1.0000   1.0000
     1.0000   1.0000   1.0000   1.0000   1.0000   1.0000   1.0000   1.0000
     1.0000   1.0000   1.0000   1.0000   1.0000   1.0000   1.0000   1.0000
     1.0000   1.0000   1.0000   1.0000   1.0000   1.0000   1.0000   1.0000
     1.0000   1.0000   1.0000   1.0000   1.0000   1.0000   1.0000   1.0000
     1.0000   1.0000   1.0000   1.0000   1.0000   1.0000   1.0000   1.0000
     1.0000   1.0000   1.0000   1.0000   1.0000   1.0000   1.0000   1.0000
     1.0000   1.0000   1.0000   1.0000   1.0000   1.0000   1.0000   1.0000
     1.0000   1.0000   1.0000   1.0000   1.0000   1.0000   1.0000   1.0000
     1.0000   0.0000   0.0000   0.0000   0.0000   0.0000   0.0000   0.0000
     0.0000   0.0000   0.0000   0.0000   0.0000   0.0000   0.0000   0.0000
     0.0000   0.0000   0.0000   0.0000   0.0000   0.0000   0.0000   0.0000

     the Fermi energy is    -0.6742 ev

!    total energy              =    -825.94434482 Ry
     Harris-Foulkes estimate   =    -825.94434486 Ry
     estimated scf accuracy    <       0.00000080 Ry

     The total energy is the sum of the following terms:

     one-electron contribution =   -2720.51951154 Ry
     hartree contribution      =    1405.05185614 Ry
     xc contribution           =    -259.65287747 Ry
     ewald contribution        =     749.17618805 Ry
     smearing contrib. (-TS)   =       0.00000000 Ry

     total magnetization       =     3.00 Bohr mag/cell
     absolute magnetization    =     4.31 Bohr mag/cell

     convergence has been achieved in  16 iterations

     Writing output data file distance-2.8.save/

     init_run     :     75.81s CPU     77.09s WALL (       1 calls)
     electrons    :   2066.59s CPU   2096.61s WALL (       1 calls)

     Called by init_run:
     wfcinit      :     47.65s CPU     47.95s WALL (       1 calls)
     wfcinit:atom :      0.05s CPU      0.10s WALL (       2 calls)
     wfcinit:wfcr :     47.22s CPU     47.41s WALL (       2 calls)
     potinit      :     11.78s CPU     12.17s WALL (       1 calls)
     hinit0       :      6.95s CPU      6.99s WALL (       1 calls)

     Called by electrons:
     c_bands      :   1409.97s CPU   1416.07s WALL (      16 calls)
     sum_band     :    387.48s CPU    396.75s WALL (      16 calls)
     v_of_rho     :    133.73s CPU    140.21s WALL (      17 calls)
     v_h          :      1.41s CPU      1.45s WALL (      17 calls)
     v_xc         :    132.32s CPU    138.76s WALL (      17 calls)
     newd         :    139.37s CPU    148.21s WALL (      17 calls)
     mix_rho      :      7.55s CPU      7.65s WALL (      16 calls)

     Called by c_bands:
     init_us_2    :      3.33s CPU      3.38s WALL (      66 calls)
     cegterg      :   1401.71s CPU   1407.76s WALL (      32 calls)

     Called by sum_band:
     sum_band:bec :      0.03s CPU      0.03s WALL (      32 calls)
     addusdens    :    242.83s CPU    251.39s WALL (      16 calls)

     Called by *egterg:
     h_psi        :    718.38s CPU    722.70s WALL (     165 calls)
     s_psi        :    240.60s CPU    240.72s WALL (     165 calls)
     g_psi        :      0.80s CPU      0.80s WALL (     131 calls)
     cdiaghg      :     15.16s CPU     15.16s WALL (     163 calls)
     cegterg:over :    196.50s CPU    196.57s WALL (     131 calls)
     cegterg:upda :    130.67s CPU    131.17s WALL (     131 calls)
     cegterg:last :     77.79s CPU     77.80s WALL (      33 calls)

     Called by h_psi:
     h_psi:pot    :    717.42s CPU    721.03s WALL (     165 calls)
     h_psi:calbec :    239.20s CPU    239.30s WALL (     165 calls)
     vloc_psi     :    238.23s CPU    241.65s WALL (     165 calls)
     add_vuspsi   :    239.99s CPU    240.07s WALL (     165 calls)

     General routines
     calbec       :    326.26s CPU    326.37s WALL (     197 calls)
     fft          :     77.07s CPU     79.71s WALL (    1269 calls)
     ffts         :      1.39s CPU      1.43s WALL (      66 calls)
     fftw         :    244.88s CPU    248.32s WALL (   26790 calls)
     interpolate  :      3.26s CPU      3.31s WALL (      34 calls)

     Parallel routines
     fft_scatt_xy :     62.79s CPU     63.34s WALL (   28125 calls)
     fft_scatt_yz :     98.22s CPU    102.62s WALL (   28125 calls)

     PWSCF        :  35m43.74s CPU  36m15.44s WALL


   This run was terminated on:  17: 7:11   9Aug2022            

=------------------------------------------------------------------------------=
   JOB DONE.
=------------------------------------------------------------------------------=
