
     Program PWSCF v.6.4.1 starts on  9Aug2022 at 17:44:39 

     This program is part of the open-source Quantum ESPRESSO suite
     for quantum simulation of materials; please cite
         "P. Giannozzi et al., J. Phys.:Condens. Matter 21 395502 (2009);
         "P. Giannozzi et al., J. Phys.:Condens. Matter 29 465901 (2017);
          URL http://www.quantum-espresso.org", 
     in publications or presentations arising from this work. More details at
     http://www.quantum-espresso.org/quote

     Parallel version (MPI), running on     6 processors

     MPI processes distributed on     1 nodes
     R & G space division:  proc/nbgrp/npool/nimage =       6
     Reading input from distance-2.4.in

     Current dimensions of program PWSCF are:
     Max number of different atomic species (ntypx) = 10
     Max number of k-points (npk) =  40000
     Max angular momentum in pseudopotentials (lmaxx) =  3

     IMPORTANT: XC functional enforced from input :
     Exchange-correlation      = RVV10 ( 1  4 13  4 3 0)
     Any further DFT definition will be discarded
     Please, verify this is what you really want

               file H.pbe-rrkjus.UPF: wavefunction(s)  1S renormalized
               file Mn.pbe-spn-rrkjus_psl.0.3.1.UPF: wavefunction(s)  3D renormalized

     Subspace diagonalization in iterative solution of the eigenvalue problem:
     a serial algorithm will be used


     Parallelization info
     --------------------
     sticks:   dense  smooth     PW     G-vecs:    dense   smooth      PW
     Min        3051    1746    432               270999   117096   14629
     Max        3053    1747    437               271001   117099   14630
     Sum       18313   10477   2611              1626001   702581   87777



     bravais-lattice index     =            4
     lattice parameter (alat)  =      23.2937  a.u.
     unit-cell volume          =    8879.8548 (a.u.)^3
     number of atoms/cell      =           52
     number of atomic types    =            3
     number of electrons       =       213.00
     number of Kohn-Sham states=          128
     kinetic-energy cutoff     =      70.0000  Ry
     charge density cutoff     =     490.0000  Ry
     convergence threshold     =      1.0E-06
     mixing beta               =       0.7000
     number of iterations used =            8  plain     mixing
     Exchange-correlation      = RVV10 ( 1  4 13  4 3 0)

     celldm(1)=  23.293684  celldm(2)=   0.000000  celldm(3)=   0.811261
     celldm(4)=   0.000000  celldm(5)=   0.000000  celldm(6)=   0.000000

     crystal axes: (cart. coord. in units of alat)
               a(1) = (   1.000000   0.000000   0.000000 )  
               a(2) = (  -0.500000   0.866025   0.000000 )  
               a(3) = (   0.000000   0.000000   0.811261 )  

     reciprocal axes: (cart. coord. in units 2 pi/alat)
               b(1) = (  1.000000  0.577350 -0.000000 )  
               b(2) = (  0.000000  1.154701  0.000000 )  
               b(3) = (  0.000000 -0.000000  1.232649 )  


     PseudoPot. # 1 for H  read from file:
     /home/cristian/Escritorio/Proyecto_Grafeno/pseudopotenciales/H.pbe-rrkjus.UPF
     MD5 check sum: 7cc9d459525c9a0585f487a71c3c9563
     Pseudo is Ultrasoft, Zval =  1.0
     Generated by new atomic code, or converted to UPF format
     Using radial grid of 1061 points,  2 beta functions with: 
                l(1) =   0
                l(2) =   0
     Q(r) pseudized with 0 coefficients 


     PseudoPot. # 2 for C  read from file:
     /home/cristian/Escritorio/Proyecto_Grafeno/pseudopotenciales/C.pbe-n-rrkjus_psl.1.0.0.UPF
     MD5 check sum: 1fdd950c42eb37d8afe3dd2f8d12311e
     Pseudo is Ultrasoft + core correction, Zval =  4.0
     Generated using "atomic" code by A. Dal Corso v.6.3MaX
     Using radial grid of 1073 points,  4 beta functions with: 
                l(1) =   0
                l(2) =   0
                l(3) =   1
                l(4) =   1
     Q(r) pseudized with 0 coefficients 


     PseudoPot. # 3 for Mn read from file:
     /home/cristian/Escritorio/Proyecto_Grafeno/pseudopotenciales/Mn.pbe-spn-rrkjus_psl.0.3.1.UPF
     MD5 check sum: e1cac159bdd2ba70c18e85765a5d4279
     Pseudo is Ultrasoft + core correction, Zval = 15.0
     Generated using "atomic" code by A. Dal Corso v.6.2.2
     Using radial grid of 1187 points,  6 beta functions with: 
                l(1) =   0
                l(2) =   0
                l(3) =   1
                l(4) =   1
                l(5) =   2
                l(6) =   2
     Q(r) pseudized with 0 coefficients 


     vdW kernel table read from file rVV10_kernel_table
     MD5 check sum: b8e2538accc0c0b3206b45ba4daaba6c

     atomic species   valence    mass     pseudopotential
        H              1.00     1.00794     H ( 1.00)
        C              4.00    12.01070     C ( 1.00)
        Mn            15.00    54.93804     Mn( 1.00)

     Starting magnetic structure 
     atomic species   magnetization
        H            0.500
        C            0.300
        Mn           0.800

      2 Sym. Ops. (no inversion) found


                                    s                        frac. trans.

      isym =  1     identity                                     

 cryst.   s( 1) = (     1          0          0      )
                  (     0          1          0      )
                  (     0          0          1      )

 cart.    s( 1) = (  1.0000000  0.0000000  0.0000000 )
                  (  0.0000000  1.0000000  0.0000000 )
                  (  0.0000000  0.0000000  1.0000000 )


      isym =  2     inv. 180 deg rotation - cryst. axis [1,1,0]  

 cryst.   s( 2) = (     0         -1          0      )
                  (    -1          0          0      )
                  (     0          0          1      )

 cart.    s( 2) = (  0.5000000 -0.8660254  0.0000000 )
                  ( -0.8660254 -0.5000000  0.0000000 )
                  (  0.0000000  0.0000000  1.0000000 )


     point group C_s (m)    
     there are  2 classes
     the character table:

       E     s    
A'     1.00  1.00
A''    1.00 -1.00

     the symmetry operations in each class and the name of the first element:

     E        1
          identity                                               
     s        2
          inv. 180 deg rotation - cryst. axis [1,1,0]            

   Cartesian axes

     site n.     atom                  positions (alat units)
         1           H   tau(   1) = (   0.2000000   0.4618802   0.1947027  )
         2           H   tau(   2) = (   0.2000000   0.4618802   0.2557154  )
         3           C   tau(   3) = (   0.0000000   0.0000000   0.0000000  )
         4           C   tau(   4) = (   0.0000000   0.1154701   0.0000000  )
         5           C   tau(   5) = (  -0.1000000   0.1732051   0.0000000  )
         6           C   tau(   6) = (  -0.1000000   0.2886751   0.0000000  )
         7           C   tau(   7) = (  -0.2000000   0.3464102   0.0000000  )
         8           C   tau(   8) = (  -0.2000000   0.4618802   0.0000000  )
         9           C   tau(   9) = (  -0.3000000   0.5196152   0.0000000  )
        10           C   tau(  10) = (  -0.3000000   0.6350853   0.0000000  )
        11           C   tau(  11) = (  -0.4000000   0.6928203   0.0000000  )
        12           C   tau(  12) = (  -0.4000000   0.8082904   0.0000000  )
        13           C   tau(  13) = (   0.2000000   0.0000000   0.0000000  )
        14           C   tau(  14) = (   0.2000000   0.1154701   0.0000000  )
        15           C   tau(  15) = (   0.1000000   0.1732051   0.0000000  )
        16           C   tau(  16) = (   0.1000000   0.2886751   0.0000000  )
        17           C   tau(  17) = (   0.0000000   0.3464102   0.0000000  )
        18           C   tau(  18) = (   0.0000000   0.4618802   0.0000000  )
        19           C   tau(  19) = (  -0.1000000   0.5196152   0.0000000  )
        20           C   tau(  20) = (  -0.1000000   0.6350853   0.0000000  )
        21           C   tau(  21) = (  -0.2000000   0.6928203   0.0000000  )
        22           C   tau(  22) = (  -0.2000000   0.8082904   0.0000000  )
        23           C   tau(  23) = (   0.4000000   0.0000000   0.0000000  )
        24           C   tau(  24) = (   0.4000000   0.1154701   0.0000000  )
        25           C   tau(  25) = (   0.3000000   0.1732051   0.0000000  )
        26           C   tau(  26) = (   0.3000000   0.2886751   0.0000000  )
        27           C   tau(  27) = (   0.2000000   0.3464102   0.0000000  )
        28           Mn  tau(  28) = (   0.2000000   0.4618802   0.0000000  )
        29           C   tau(  29) = (   0.1000000   0.5196152   0.0000000  )
        30           C   tau(  30) = (   0.1000000   0.6350853   0.0000000  )
        31           C   tau(  31) = (   0.0000000   0.6928203   0.0000000  )
        32           C   tau(  32) = (   0.0000000   0.8082904   0.0000000  )
        33           C   tau(  33) = (   0.6000000   0.0000000   0.0000000  )
        34           C   tau(  34) = (   0.6000000   0.1154701   0.0000000  )
        35           C   tau(  35) = (   0.5000000   0.1732051   0.0000000  )
        36           C   tau(  36) = (   0.5000000   0.2886751   0.0000000  )
        37           C   tau(  37) = (   0.4000000   0.3464102   0.0000000  )
        38           C   tau(  38) = (   0.4000000   0.4618802   0.0000000  )
        39           C   tau(  39) = (   0.3000000   0.5196152   0.0000000  )
        40           C   tau(  40) = (   0.3000000   0.6350853   0.0000000  )
        41           C   tau(  41) = (   0.2000000   0.6928203   0.0000000  )
        42           C   tau(  42) = (   0.2000000   0.8082904   0.0000000  )
        43           C   tau(  43) = (   0.8000000   0.0000000   0.0000000  )
        44           C   tau(  44) = (   0.8000000   0.1154701   0.0000000  )
        45           C   tau(  45) = (   0.7000000   0.1732051   0.0000000  )
        46           C   tau(  46) = (   0.7000000   0.2886751   0.0000000  )
        47           C   tau(  47) = (   0.6000000   0.3464102   0.0000000  )
        48           C   tau(  48) = (   0.6000000   0.4618802   0.0000000  )
        49           C   tau(  49) = (   0.5000000   0.5196152   0.0000000  )
        50           C   tau(  50) = (   0.5000000   0.6350853   0.0000000  )
        51           C   tau(  51) = (   0.4000000   0.6928203   0.0000000  )
        52           C   tau(  52) = (   0.4000000   0.8082904   0.0000000  )

   Crystallographic axes

     site n.     atom                  positions (cryst. coord.)
         1           H   tau(   1) = (  0.4666667  0.5333333  0.2400000  )
         2           H   tau(   2) = (  0.4666667  0.5333333  0.3152072  )
         3           C   tau(   3) = (  0.0000000  0.0000000  0.0000000  )
         4           C   tau(   4) = (  0.0666667  0.1333333  0.0000000  )
         5           C   tau(   5) = (  0.0000000  0.2000000  0.0000000  )
         6           C   tau(   6) = (  0.0666667  0.3333333  0.0000000  )
         7           C   tau(   7) = (  0.0000000  0.4000000  0.0000000  )
         8           C   tau(   8) = (  0.0666667  0.5333333  0.0000000  )
         9           C   tau(   9) = (  0.0000000  0.6000000  0.0000000  )
        10           C   tau(  10) = (  0.0666667  0.7333333  0.0000000  )
        11           C   tau(  11) = (  0.0000000  0.8000000  0.0000000  )
        12           C   tau(  12) = (  0.0666667  0.9333333  0.0000000  )
        13           C   tau(  13) = (  0.2000000  0.0000000  0.0000000  )
        14           C   tau(  14) = (  0.2666667  0.1333333  0.0000000  )
        15           C   tau(  15) = (  0.2000000  0.2000000  0.0000000  )
        16           C   tau(  16) = (  0.2666667  0.3333333  0.0000000  )
        17           C   tau(  17) = (  0.2000000  0.4000000  0.0000000  )
        18           C   tau(  18) = (  0.2666667  0.5333333  0.0000000  )
        19           C   tau(  19) = (  0.2000000  0.6000000  0.0000000  )
        20           C   tau(  20) = (  0.2666667  0.7333333  0.0000000  )
        21           C   tau(  21) = (  0.2000000  0.8000000  0.0000000  )
        22           C   tau(  22) = (  0.2666667  0.9333333  0.0000000  )
        23           C   tau(  23) = (  0.4000000  0.0000000  0.0000000  )
        24           C   tau(  24) = (  0.4666667  0.1333333  0.0000000  )
        25           C   tau(  25) = (  0.4000000  0.2000000  0.0000000  )
        26           C   tau(  26) = (  0.4666667  0.3333333  0.0000000  )
        27           C   tau(  27) = (  0.4000000  0.4000000  0.0000000  )
        28           Mn  tau(  28) = (  0.4666667  0.5333333  0.0000000  )
        29           C   tau(  29) = (  0.4000000  0.6000000  0.0000000  )
        30           C   tau(  30) = (  0.4666667  0.7333333  0.0000000  )
        31           C   tau(  31) = (  0.4000000  0.8000000  0.0000000  )
        32           C   tau(  32) = (  0.4666667  0.9333333  0.0000000  )
        33           C   tau(  33) = (  0.6000000  0.0000000  0.0000000  )
        34           C   tau(  34) = (  0.6666667  0.1333333  0.0000000  )
        35           C   tau(  35) = (  0.6000000  0.2000000  0.0000000  )
        36           C   tau(  36) = (  0.6666667  0.3333333  0.0000000  )
        37           C   tau(  37) = (  0.6000000  0.4000000  0.0000000  )
        38           C   tau(  38) = (  0.6666667  0.5333333  0.0000000  )
        39           C   tau(  39) = (  0.6000000  0.6000000  0.0000000  )
        40           C   tau(  40) = (  0.6666667  0.7333333  0.0000000  )
        41           C   tau(  41) = (  0.6000000  0.8000000  0.0000000  )
        42           C   tau(  42) = (  0.6666667  0.9333333  0.0000000  )
        43           C   tau(  43) = (  0.8000000  0.0000000  0.0000000  )
        44           C   tau(  44) = (  0.8666667  0.1333333  0.0000000  )
        45           C   tau(  45) = (  0.8000000  0.2000000  0.0000000  )
        46           C   tau(  46) = (  0.8666667  0.3333333  0.0000000  )
        47           C   tau(  47) = (  0.8000000  0.4000000  0.0000000  )
        48           C   tau(  48) = (  0.8666667  0.5333333  0.0000000  )
        49           C   tau(  49) = (  0.8000000  0.6000000  0.0000000  )
        50           C   tau(  50) = (  0.8666667  0.7333333  0.0000000  )
        51           C   tau(  51) = (  0.8000000  0.8000000  0.0000000  )
        52           C   tau(  52) = (  0.8666667  0.9333333  0.0000000  )

     number of k points=     1  Marzari-Vanderbilt smearing, width (Ry)=  0.0010
                       cart. coord. in units 2pi/alat
        k(    1) = (   0.0000000   0.0000000   0.0000000), wk =   1.0000000

                       cryst. coord.
        k(    1) = (   0.0000000   0.0000000   0.0000000), wk =   1.0000000

     Dense  grid:  1626001 G-vectors     FFT dimensions: ( 180, 180, 135)

     Smooth grid:   702581 G-vectors     FFT dimensions: ( 125, 125, 108)

     Dynamical RAM for                 wfc:      28.59 MB

     Dynamical RAM for     wfc (w. buffer):      85.76 MB

     Dynamical RAM for           str. fact:      12.41 MB

     Dynamical RAM for           local pot:       0.00 MB

     Dynamical RAM for          nlocal pot:      92.46 MB

     Dynamical RAM for                qrad:      19.73 MB

     Dynamical RAM for          rho,v,vnew:      58.92 MB

     Dynamical RAM for               rhoin:      19.64 MB

     Dynamical RAM for            rho*nmix:     132.32 MB

     Dynamical RAM for           G-vectors:      16.40 MB

     Dynamical RAM for          h,s,v(r/c):      12.00 MB

     Dynamical RAM for          <psi|beta>:       0.81 MB

     Dynamical RAM for                 psi:     114.35 MB

     Dynamical RAM for                hpsi:     114.35 MB

     Dynamical RAM for                spsi:     114.35 MB

     Dynamical RAM for      wfcinit/wfcrot:      93.90 MB

     Dynamical RAM for           addusdens:     975.89 MB

     Estimated static dynamical RAM per process >     488.30 MB

     Estimated max dynamical RAM per process >       1.43 GB

     Estimated total dynamical RAM >       8.58 GB
     Generating pointlists ...
     new r_m :   0.0252 (alat units)  0.5862 (a.u.) for type    1
     new r_m :   0.0476 (alat units)  1.1095 (a.u.) for type    2
     new r_m :   0.0476 (alat units)  1.1095 (a.u.) for type    3

     Check: negative core charge=   -0.000002

     Initial potential from superposition of free atoms

     starting charge  212.80506, renormalised to  213.00000

     negative rho (up, down):  7.296E-05 1.115E-02


---------------------------------------------------------------------------------
Carrying out rVV10 run using the following parameters:
Nqs =      20    Nr_points =    1024   r_max =   100.000
b_value =  6.30000    beta =  0.00901
     q_mesh =  0.00010000  0.00030000  0.00058939  0.00100810
               0.00161396  0.00249058  0.00375900  0.00559430
               0.00824984  0.01209221  0.01765183  0.02569619
               0.03733578  0.05417739  0.07854596  0.11380545
               0.16482331  0.23864234  0.34545298  0.50000000

Gradients computed in Reciprocal space

---------------------------------------------------------------------------------


     Starting wfcs are  208 randomized atomic wfcs

     total cpu time spent up to now is       78.8 secs

     Self-consistent Calculation

     iteration #  1     ecut=    70.00 Ry     beta= 0.70
     Davidson diagonalization with overlap
     ethr =  1.00E-02,  avg # of iterations =  2.5

     negative rho (up, down):  1.499E-04 1.100E-02

     total cpu time spent up to now is      226.2 secs

     total energy              =    -821.85733514 Ry
     Harris-Foulkes estimate   =    -824.98936788 Ry
     estimated scf accuracy    <      11.40036250 Ry

     total magnetization       =     7.00 Bohr mag/cell
     absolute magnetization    =     7.34 Bohr mag/cell

     iteration #  2     ecut=    70.00 Ry     beta= 0.70
     Davidson diagonalization with overlap
     ethr =  5.35E-03,  avg # of iterations =  6.5

     negative rho (up, down):  1.860E-04 1.160E-02

     total cpu time spent up to now is      367.5 secs

     total energy              =    -812.24452656 Ry
     Harris-Foulkes estimate   =    -834.69166789 Ry
     estimated scf accuracy    <      94.64142456 Ry

     total magnetization       =     3.00 Bohr mag/cell
     absolute magnetization    =     3.22 Bohr mag/cell

     iteration #  3     ecut=    70.00 Ry     beta= 0.70
     Davidson diagonalization with overlap
     ethr =  5.35E-03,  avg # of iterations =  5.0

     negative rho (up, down):  2.357E-04 8.409E-03

     total cpu time spent up to now is      572.7 secs

     total energy              =    -823.83146852 Ry
     Harris-Foulkes estimate   =    -827.06893726 Ry
     estimated scf accuracy    <      18.50124656 Ry

     total magnetization       =     7.00 Bohr mag/cell
     absolute magnetization    =     7.05 Bohr mag/cell

     iteration #  4     ecut=    70.00 Ry     beta= 0.70
     Davidson diagonalization with overlap
     ethr =  5.35E-03,  avg # of iterations =  3.5

     negative rho (up, down):  2.749E-04 9.424E-03

     total cpu time spent up to now is      684.3 secs

     total energy              =    -825.32902412 Ry
     Harris-Foulkes estimate   =    -826.40417733 Ry
     estimated scf accuracy    <       3.31208026 Ry

     total magnetization       =     3.00 Bohr mag/cell
     absolute magnetization    =     3.40 Bohr mag/cell

     iteration #  5     ecut=    70.00 Ry     beta= 0.70
     Davidson diagonalization with overlap
     ethr =  1.55E-03,  avg # of iterations =  3.5

     negative rho (up, down):  3.580E-04 1.710E-02

     total cpu time spent up to now is      809.4 secs

     total energy              =    -825.79438563 Ry
     Harris-Foulkes estimate   =    -825.98848661 Ry
     estimated scf accuracy    <       0.54447706 Ry

     total magnetization       =     3.00 Bohr mag/cell
     absolute magnetization    =     3.36 Bohr mag/cell

     iteration #  6     ecut=    70.00 Ry     beta= 0.70
     Davidson diagonalization with overlap
     ethr =  2.56E-04,  avg # of iterations =  8.0

     negative rho (up, down):  5.945E-04 6.307E-03

     total cpu time spent up to now is      941.0 secs

     total energy              =    -825.91400821 Ry
     Harris-Foulkes estimate   =    -825.95343371 Ry
     estimated scf accuracy    <       0.13207665 Ry

     total magnetization       =     3.00 Bohr mag/cell
     absolute magnetization    =     3.47 Bohr mag/cell

     iteration #  7     ecut=    70.00 Ry     beta= 0.70
     Davidson diagonalization with overlap
     ethr =  6.20E-05,  avg # of iterations =  3.0

     negative rho (up, down):  6.549E-04 5.558E-03

     total cpu time spent up to now is     1062.4 secs

     total energy              =    -825.93473179 Ry
     Harris-Foulkes estimate   =    -825.94146431 Ry
     estimated scf accuracy    <       0.01517925 Ry

     total magnetization       =     3.00 Bohr mag/cell
     absolute magnetization    =     3.65 Bohr mag/cell

     iteration #  8     ecut=    70.00 Ry     beta= 0.70
     Davidson diagonalization with overlap
     ethr =  7.13E-06,  avg # of iterations =  9.5

     negative rho (up, down):  6.620E-04 5.500E-03

     total cpu time spent up to now is     1205.4 secs

     total energy              =    -825.93880601 Ry
     Harris-Foulkes estimate   =    -825.94123011 Ry
     estimated scf accuracy    <       0.00755328 Ry

     total magnetization       =     3.00 Bohr mag/cell
     absolute magnetization    =     3.80 Bohr mag/cell

     iteration #  9     ecut=    70.00 Ry     beta= 0.70
     Davidson diagonalization with overlap
     ethr =  3.55E-06,  avg # of iterations =  5.5

     negative rho (up, down):  6.614E-04 5.527E-03

     total cpu time spent up to now is     1337.4 secs

     total energy              =    -825.94057653 Ry
     Harris-Foulkes estimate   =    -825.94075777 Ry
     estimated scf accuracy    <       0.00106525 Ry

     total magnetization       =     3.00 Bohr mag/cell
     absolute magnetization    =     3.90 Bohr mag/cell

     iteration # 10     ecut=    70.00 Ry     beta= 0.70
     Davidson diagonalization with overlap
     ethr =  5.00E-07,  avg # of iterations =  2.5

     negative rho (up, down):  6.596E-04 5.592E-03

     total cpu time spent up to now is     1464.9 secs

     total energy              =    -825.94097486 Ry
     Harris-Foulkes estimate   =    -825.94084800 Ry
     estimated scf accuracy    <       0.00008933 Ry

     total magnetization       =     3.00 Bohr mag/cell
     absolute magnetization    =     4.00 Bohr mag/cell

     iteration # 11     ecut=    70.00 Ry     beta= 0.70
     Davidson diagonalization with overlap
     ethr =  4.19E-08,  avg # of iterations =  3.0

     negative rho (up, down):  6.562E-04 5.721E-03

     total cpu time spent up to now is     1610.1 secs

     total energy              =    -825.94109421 Ry
     Harris-Foulkes estimate   =    -825.94103936 Ry
     estimated scf accuracy    <       0.00004149 Ry

     total magnetization       =     3.00 Bohr mag/cell
     absolute magnetization    =     4.10 Bohr mag/cell

     iteration # 12     ecut=    70.00 Ry     beta= 0.70
     Davidson diagonalization with overlap
     ethr =  1.95E-08,  avg # of iterations =  3.0

     negative rho (up, down):  6.538E-04 5.827E-03

     total cpu time spent up to now is     1756.1 secs

     total energy              =    -825.94114544 Ry
     Harris-Foulkes estimate   =    -825.94112954 Ry
     estimated scf accuracy    <       0.00001411 Ry

     total magnetization       =     3.00 Bohr mag/cell
     absolute magnetization    =     4.19 Bohr mag/cell

     iteration # 13     ecut=    70.00 Ry     beta= 0.70
     Davidson diagonalization with overlap
     ethr =  6.62E-09,  avg # of iterations =  3.5

     negative rho (up, down):  6.551E-04 5.815E-03

     total cpu time spent up to now is     1904.5 secs

     total energy              =    -825.94116195 Ry
     Harris-Foulkes estimate   =    -825.94116321 Ry
     estimated scf accuracy    <       0.00002809 Ry

     total magnetization       =     3.00 Bohr mag/cell
     absolute magnetization    =     4.25 Bohr mag/cell

     iteration # 14     ecut=    70.00 Ry     beta= 0.70
     Davidson diagonalization with overlap
     ethr =  6.62E-09,  avg # of iterations =  3.0

     negative rho (up, down):  6.556E-04 5.825E-03

     total cpu time spent up to now is     2038.1 secs

     total energy              =    -825.94117116 Ry
     Harris-Foulkes estimate   =    -825.94117063 Ry
     estimated scf accuracy    <       0.00000517 Ry

     total magnetization       =     3.00 Bohr mag/cell
     absolute magnetization    =     4.28 Bohr mag/cell

     iteration # 15     ecut=    70.00 Ry     beta= 0.70
     Davidson diagonalization with overlap
     ethr =  2.43E-09,  avg # of iterations =  3.0

     negative rho (up, down):  6.557E-04 5.829E-03

     total cpu time spent up to now is     2180.2 secs

     total energy              =    -825.94117406 Ry
     Harris-Foulkes estimate   =    -825.94117455 Ry
     estimated scf accuracy    <       0.00000510 Ry

     total magnetization       =     3.00 Bohr mag/cell
     absolute magnetization    =     4.30 Bohr mag/cell

     iteration # 16     ecut=    70.00 Ry     beta= 0.70
     Davidson diagonalization with overlap
     ethr =  2.40E-09,  avg # of iterations =  3.5

     negative rho (up, down):  6.566E-04 5.834E-03

     Magnetic moment per site:
     atom:    1    charge:    0.2116    magn:   -0.0011    constr:    0.0000
     atom:    2    charge:    0.2118    magn:    0.0102    constr:    0.0000
     atom:    3    charge:    1.7170    magn:   -0.0127    constr:    0.0000
     atom:    4    charge:    1.7155    magn:    0.0179    constr:    0.0000
     atom:    5    charge:    1.7177    magn:   -0.0096    constr:    0.0000
     atom:    6    charge:    1.7143    magn:    0.0061    constr:    0.0000
     atom:    7    charge:    1.7177    magn:   -0.0096    constr:    0.0000
     atom:    8    charge:    1.7156    magn:    0.0179    constr:    0.0000
     atom:    9    charge:    1.7170    magn:   -0.0127    constr:    0.0000
     atom:   10    charge:    1.7155    magn:    0.0576    constr:    0.0000
     atom:   11    charge:    1.7175    magn:   -0.0179    constr:    0.0000
     atom:   12    charge:    1.7155    magn:    0.0576    constr:    0.0000
     atom:   13    charge:    1.7175    magn:   -0.0179    constr:    0.0000
     atom:   14    charge:    1.7159    magn:    0.0460    constr:    0.0000
     atom:   15    charge:    1.7143    magn:   -0.0147    constr:    0.0000
     atom:   16    charge:    1.7125    magn:    0.0614    constr:    0.0000
     atom:   17    charge:    1.7236    magn:   -0.0139    constr:    0.0000
     atom:   18    charge:    1.7125    magn:    0.0614    constr:    0.0000
     atom:   19    charge:    1.7144    magn:   -0.0147    constr:    0.0000
     atom:   20    charge:    1.7160    magn:    0.0460    constr:    0.0000
     atom:   21    charge:    1.7175    magn:   -0.0179    constr:    0.0000
     atom:   22    charge:    1.7155    magn:    0.0576    constr:    0.0000
     atom:   23    charge:    1.7170    magn:   -0.0127    constr:    0.0000
     atom:   24    charge:    1.7155    magn:    0.0179    constr:    0.0000
     atom:   25    charge:    1.7143    magn:   -0.0147    constr:    0.0000
     atom:   26    charge:    1.7124    magn:    0.0614    constr:    0.0000
     atom:   27    charge:    1.8742    magn:   -0.0294    constr:    0.0000
     atom:   28    charge:   10.0212    magn:    0.7857    constr:    0.0000
     atom:   29    charge:    1.8743    magn:   -0.0294    constr:    0.0000
     atom:   30    charge:    1.7125    magn:    0.0614    constr:    0.0000
     atom:   31    charge:    1.7144    magn:   -0.0147    constr:    0.0000
     atom:   32    charge:    1.7156    magn:    0.0179    constr:    0.0000
     atom:   33    charge:    1.7177    magn:   -0.0096    constr:    0.0000
     atom:   34    charge:    1.7141    magn:    0.0125    constr:    0.0000
     atom:   35    charge:    1.7177    magn:   -0.0096    constr:    0.0000
     atom:   36    charge:    1.7143    magn:    0.0061    constr:    0.0000
     atom:   37    charge:    1.7235    magn:   -0.0139    constr:    0.0000
     atom:   38    charge:    1.7124    magn:    0.0614    constr:    0.0000
     atom:   39    charge:    1.8742    magn:   -0.0294    constr:    0.0000
     atom:   40    charge:    1.7125    magn:    0.0614    constr:    0.0000
     atom:   41    charge:    1.7236    magn:   -0.0139    constr:    0.0000
     atom:   42    charge:    1.7143    magn:    0.0061    constr:    0.0000
     atom:   43    charge:    1.7177    magn:   -0.0096    constr:    0.0000
     atom:   44    charge:    1.7141    magn:    0.0125    constr:    0.0000
     atom:   45    charge:    1.7233    magn:   -0.0067    constr:    0.0000
     atom:   46    charge:    1.7141    magn:    0.0125    constr:    0.0000
     atom:   47    charge:    1.7177    magn:   -0.0096    constr:    0.0000
     atom:   48    charge:    1.7155    magn:    0.0179    constr:    0.0000
     atom:   49    charge:    1.7143    magn:   -0.0147    constr:    0.0000
     atom:   50    charge:    1.7159    magn:    0.0460    constr:    0.0000
     atom:   51    charge:    1.7143    magn:   -0.0147    constr:    0.0000
     atom:   52    charge:    1.7155    magn:    0.0179    constr:    0.0000

     total cpu time spent up to now is     2292.2 secs

     End of self-consistent calculation

 ------ SPIN UP ------------


          k = 0.0000 0.0000 0.0000 ( 87777 PWs)   bands (ev):

   -80.7071 -50.2125 -50.2125 -49.1280 -19.7774 -18.9417 -18.9413 -18.8501
   -18.8299 -18.8296 -18.4866 -17.0791 -17.0790 -17.0733 -16.9943 -16.9943
   -16.6828 -16.2341 -16.2340 -16.1259 -16.0644 -16.0644 -15.3646 -14.1238
   -14.1237 -14.0572 -13.9914 -13.9914 -13.3256 -13.0655 -13.0654 -13.0382
   -12.7358 -12.7358 -12.3193 -11.8434 -11.8433 -11.6593 -11.3838 -11.3838
   -10.4721  -9.6754  -9.6754  -9.4377  -9.3195  -9.3195  -9.2252  -9.1980
    -9.1979  -9.1835  -8.6944  -8.6944  -8.1667  -8.1667  -8.0624  -7.9584
    -7.8326  -7.4271  -7.4271  -7.2042  -7.1985  -7.1982  -7.0557  -6.9190
    -6.9189  -6.8264  -6.8262  -6.8089  -6.7138  -6.5628  -6.5626  -6.5316
    -6.5219  -6.5218  -6.4763  -6.3659  -5.6480  -5.6478  -5.5239  -5.5239
    -5.3201  -5.3201  -5.0300  -4.9823  -4.8827  -4.7499  -4.7302  -4.7302
    -4.3932  -4.2311  -4.2310  -4.2169  -4.2168  -3.8900  -3.8899  -3.7918
    -3.6685  -3.6684  -3.1265  -2.7570  -2.7570  -1.9002  -1.8029  -1.8029
    -1.3620  -1.1168  -1.1166  -0.8394   0.9020   0.9640   0.9641   1.5657
     1.5657   1.5753   2.4930   2.7563   2.7564   2.8550   3.0031   3.0031
     3.4317   3.4694   3.4694   3.6540   3.6541   3.7350   3.7351   3.7406

     occupation numbers 
     1.0000   1.0000   1.0000   1.0000   1.0000   1.0000   1.0000   1.0000
     1.0000   1.0000   1.0000   1.0000   1.0000   1.0000   1.0000   1.0000
     1.0000   1.0000   1.0000   1.0000   1.0000   1.0000   1.0000   1.0000
     1.0000   1.0000   1.0000   1.0000   1.0000   1.0000   1.0000   1.0000
     1.0000   1.0000   1.0000   1.0000   1.0000   1.0000   1.0000   1.0000
     1.0000   1.0000   1.0000   1.0000   1.0000   1.0000   1.0000   1.0000
     1.0000   1.0000   1.0000   1.0000   1.0000   1.0000   1.0000   1.0000
     1.0000   1.0000   1.0000   1.0000   1.0000   1.0000   1.0000   1.0000
     1.0000   1.0000   1.0000   1.0000   1.0000   1.0000   1.0000   1.0000
     1.0000   1.0000   1.0000   1.0000   1.0000   1.0000   1.0000   1.0000
     1.0000   1.0000   1.0000   1.0000   1.0000   1.0000   1.0000   1.0000
     1.0000   1.0000   1.0000   1.0000   1.0000   1.0000   1.0000   1.0000
     1.0000   1.0000   1.0000   1.0000   1.0000   1.0000   1.0000   1.0000
     1.0000   1.0000   1.0000   1.0000   0.0000   0.0000   0.0000   0.0000
     0.0000   0.0000   0.0000   0.0000   0.0000   0.0000   0.0000   0.0000
     0.0000   0.0000   0.0000   0.0000   0.0000   0.0000   0.0000   0.0000

 ------ SPIN DOWN ----------


          k = 0.0000 0.0000 0.0000 ( 87777 PWs)   bands (ev):

   -79.3692 -49.1431 -49.1431 -47.3680 -19.7357 -18.8934 -18.8931 -18.8126
   -18.8033 -18.8030 -18.4214 -17.0440 -17.0416 -17.0416 -16.9383 -16.9382
   -16.6531 -16.1839 -16.1839 -16.0948 -16.0207 -16.0206 -15.3337 -14.0504
   -14.0503 -13.9886 -13.9813 -13.9813 -13.3319 -13.0391 -13.0391 -13.0054
   -12.7167 -12.7167 -12.2821 -11.8012 -11.8011 -11.6343 -11.3596 -11.3596
   -10.4345  -9.6075  -9.6075  -9.4068  -9.2846  -9.2846  -9.2091  -9.1733
    -9.1733  -9.1659  -8.6785  -8.6785  -8.1170  -8.1170  -8.0312  -7.8585
    -7.8145  -7.4108  -7.4108  -7.1481  -7.0032  -7.0029  -6.9040  -6.8573
    -6.8572  -6.7696  -6.7694  -6.7310  -6.6977  -6.5434  -6.5433  -6.5202
    -6.5088  -6.5087  -6.4587  -6.2141  -5.4859  -5.4859  -5.3625  -5.3623
    -5.2431  -5.2431  -4.9687  -4.8713  -4.6824  -4.6752  -4.6388  -4.6388
    -4.3182  -4.1012  -4.1011  -4.0102  -4.0101  -3.7539  -3.7538  -3.7046
    -3.6494  -3.6494  -3.0550  -2.4993  -2.4993  -1.7783  -1.7782  -1.7303
    -0.8118  -0.5193  -0.5191  -0.0026   1.0059   1.0059   1.0592   1.7366
     1.7448   1.7448   2.5198   2.8940   2.8940   2.9239   3.2821   3.2821
     3.5929   3.6544   3.6545   3.7107   3.7107   3.7465   3.7465   3.7578

     occupation numbers 
     1.0000   1.0000   1.0000   1.0000   1.0000   1.0000   1.0000   1.0000
     1.0000   1.0000   1.0000   1.0000   1.0000   1.0000   1.0000   1.0000
     1.0000   1.0000   1.0000   1.0000   1.0000   1.0000   1.0000   1.0000
     1.0000   1.0000   1.0000   1.0000   1.0000   1.0000   1.0000   1.0000
     1.0000   1.0000   1.0000   1.0000   1.0000   1.0000   1.0000   1.0000
     1.0000   1.0000   1.0000   1.0000   1.0000   1.0000   1.0000   1.0000
     1.0000   1.0000   1.0000   1.0000   1.0000   1.0000   1.0000   1.0000
     1.0000   1.0000   1.0000   1.0000   1.0000   1.0000   1.0000   1.0000
     1.0000   1.0000   1.0000   1.0000   1.0000   1.0000   1.0000   1.0000
     1.0000   1.0000   1.0000   1.0000   1.0000   1.0000   1.0000   1.0000
     1.0000   1.0000   1.0000   1.0000   1.0000   1.0000   1.0000   1.0000
     1.0000   1.0000   1.0000   1.0000   1.0000   1.0000   1.0000   1.0000
     1.0000   1.0000   1.0000   1.0000   1.0000   1.0000   1.0000   1.0000
     1.0000   0.0000   0.0000   0.0000   0.0000   0.0000   0.0000   0.0000
     0.0000   0.0000   0.0000   0.0000   0.0000   0.0000   0.0000   0.0000
     0.0000   0.0000   0.0000   0.0000   0.0000   0.0000   0.0000   0.0000

     the Fermi energy is    -0.6721 ev

!    total energy              =    -825.94117503 Ry
     Harris-Foulkes estimate   =    -825.94117508 Ry
     estimated scf accuracy    <       0.00000073 Ry

     The total energy is the sum of the following terms:

     one-electron contribution =   -2729.01545812 Ry
     hartree contribution      =    1409.33995143 Ry
     xc contribution           =    -259.67145941 Ry
     ewald contribution        =     753.40579108 Ry
     smearing contrib. (-TS)   =       0.00000000 Ry

     total magnetization       =     3.00 Bohr mag/cell
     absolute magnetization    =     4.31 Bohr mag/cell

     convergence has been achieved in  16 iterations

     Writing output data file distance-2.4.save/

     init_run     :     76.32s CPU     77.67s WALL (       1 calls)
     electrons    :   2181.76s CPU   2213.53s WALL (       1 calls)

     Called by init_run:
     wfcinit      :     48.10s CPU     48.36s WALL (       1 calls)
     wfcinit:atom :      0.05s CPU      0.08s WALL (       2 calls)
     wfcinit:wfcr :     47.68s CPU     47.86s WALL (       2 calls)
     potinit      :     11.70s CPU     12.13s WALL (       1 calls)
     hinit0       :      6.49s CPU      6.52s WALL (       1 calls)

     Called by electrons:
     c_bands      :   1496.87s CPU   1504.25s WALL (      16 calls)
     sum_band     :    404.88s CPU    414.58s WALL (      16 calls)
     v_of_rho     :    136.38s CPU    142.97s WALL (      17 calls)
     v_h          :      1.52s CPU      1.55s WALL (      17 calls)
     v_xc         :    134.87s CPU    141.42s WALL (      17 calls)
     newd         :    148.03s CPU    156.84s WALL (      17 calls)
     mix_rho      :      7.75s CPU      7.87s WALL (      16 calls)

     Called by c_bands:
     init_us_2    :      3.39s CPU      3.44s WALL (      66 calls)
     cegterg      :   1488.38s CPU   1495.72s WALL (      32 calls)

     Called by sum_band:
     sum_band:bec :      0.03s CPU      0.03s WALL (      32 calls)
     addusdens    :    257.98s CPU    266.83s WALL (      16 calls)

     Called by *egterg:
     h_psi        :    753.08s CPU    758.02s WALL (     171 calls)
     s_psi        :    247.88s CPU    248.13s WALL (     171 calls)
     g_psi        :      0.86s CPU      0.87s WALL (     137 calls)
     cdiaghg      :     17.31s CPU     17.32s WALL (     169 calls)
     cegterg:over :    217.55s CPU    217.73s WALL (     137 calls)
     cegterg:upda :    143.68s CPU    144.40s WALL (     137 calls)
     cegterg:last :     81.34s CPU     81.39s WALL (      33 calls)

     Called by h_psi:
     h_psi:pot    :    752.14s CPU    756.23s WALL (     171 calls)
     h_psi:calbec :    251.45s CPU    251.64s WALL (     171 calls)
     vloc_psi     :    253.31s CPU    257.04s WALL (     171 calls)
     add_vuspsi   :    247.39s CPU    247.55s WALL (     171 calls)

     General routines
     calbec       :    340.15s CPU    340.41s WALL (     203 calls)
     fft          :     78.36s CPU     81.05s WALL (    1269 calls)
     ffts         :      1.43s CPU      1.49s WALL (      66 calls)
     fftw         :    256.05s CPU    259.83s WALL (   27382 calls)
     interpolate  :      3.41s CPU      3.48s WALL (      34 calls)

     Parallel routines
     fft_scatt_xy :     64.15s CPU     64.73s WALL (   28717 calls)
     fft_scatt_yz :     98.71s CPU    103.35s WALL (   28717 calls)

     PWSCF        :  37m39.52s CPU  38m12.90s WALL


   This run was terminated on:  18:22:52   9Aug2022            

=------------------------------------------------------------------------------=
   JOB DONE.
=------------------------------------------------------------------------------=
