
     Program PWSCF v.6.4.1 starts on 25Jul2022 at 22:35:32 

     This program is part of the open-source Quantum ESPRESSO suite
     for quantum simulation of materials; please cite
         "P. Giannozzi et al., J. Phys.:Condens. Matter 21 395502 (2009);
         "P. Giannozzi et al., J. Phys.:Condens. Matter 29 465901 (2017);
          URL http://www.quantum-espresso.org", 
     in publications or presentations arising from this work. More details at
     http://www.quantum-espresso.org/quote

     Parallel version (MPI), running on     6 processors

     MPI processes distributed on     1 nodes
     R & G space division:  proc/nbgrp/npool/nimage =       6
     Reading input from distance-1.8.in

     Current dimensions of program PWSCF are:
     Max number of different atomic species (ntypx) = 10
     Max number of k-points (npk) =  40000
     Max angular momentum in pseudopotentials (lmaxx) =  3

     IMPORTANT: XC functional enforced from input :
     Exchange-correlation      = RVV10 ( 1  4 13  4 3 0)
     Any further DFT definition will be discarded
     Please, verify this is what you really want

               file H.pbe-rrkjus.UPF: wavefunction(s)  1S renormalized
               file Cu.pbe-dn-rrkjus_psl.1.0.0.UPF: wavefunction(s)  3D renormalized

     Subspace diagonalization in iterative solution of the eigenvalue problem:
     a serial algorithm will be used


     Parallelization info
     --------------------
     sticks:   dense  smooth     PW     G-vecs:    dense   smooth      PW
     Min        3051    1746    432               270999   117096   14629
     Max        3053    1747    437               271001   117099   14630
     Sum       18313   10477   2611              1626001   702581   87777



     bravais-lattice index     =            4
     lattice parameter (alat)  =      23.2937  a.u.
     unit-cell volume          =    8879.8548 (a.u.)^3
     number of atoms/cell      =           52
     number of atomic types    =            3
     number of electrons       =       209.00
     number of Kohn-Sham states=          126
     kinetic-energy cutoff     =      70.0000  Ry
     charge density cutoff     =     490.0000  Ry
     convergence threshold     =      1.0E-06
     mixing beta               =       0.7000
     number of iterations used =            8  plain     mixing
     Exchange-correlation      = RVV10 ( 1  4 13  4 3 0)

     celldm(1)=  23.293684  celldm(2)=   0.000000  celldm(3)=   0.811261
     celldm(4)=   0.000000  celldm(5)=   0.000000  celldm(6)=   0.000000

     crystal axes: (cart. coord. in units of alat)
               a(1) = (   1.000000   0.000000   0.000000 )  
               a(2) = (  -0.500000   0.866025   0.000000 )  
               a(3) = (   0.000000   0.000000   0.811261 )  

     reciprocal axes: (cart. coord. in units 2 pi/alat)
               b(1) = (  1.000000  0.577350 -0.000000 )  
               b(2) = (  0.000000  1.154701  0.000000 )  
               b(3) = (  0.000000 -0.000000  1.232649 )  


     PseudoPot. # 1 for H  read from file:
     /home/cristian/Escritorio/Proyecto_Grafeno/pseudopotenciales/H.pbe-rrkjus.UPF
     MD5 check sum: 7cc9d459525c9a0585f487a71c3c9563
     Pseudo is Ultrasoft, Zval =  1.0
     Generated by new atomic code, or converted to UPF format
     Using radial grid of 1061 points,  2 beta functions with: 
                l(1) =   0
                l(2) =   0
     Q(r) pseudized with 0 coefficients 


     PseudoPot. # 2 for C  read from file:
     /home/cristian/Escritorio/Proyecto_Grafeno/pseudopotenciales/C.pbe-n-rrkjus_psl.1.0.0.UPF
     MD5 check sum: 1fdd950c42eb37d8afe3dd2f8d12311e
     Pseudo is Ultrasoft + core correction, Zval =  4.0
     Generated using "atomic" code by A. Dal Corso v.6.3MaX
     Using radial grid of 1073 points,  4 beta functions with: 
                l(1) =   0
                l(2) =   0
                l(3) =   1
                l(4) =   1
     Q(r) pseudized with 0 coefficients 


     PseudoPot. # 3 for Cu read from file:
     /home/cristian/Escritorio/Proyecto_Grafeno/pseudopotenciales/Cu.pbe-dn-rrkjus_psl.1.0.0.UPF
     MD5 check sum: ba3d6c84e19846e79d48cdc68ff7152b
     Pseudo is Ultrasoft + core correction, Zval = 11.0
     Generated using "atomic" code by A. Dal Corso v.6.3
     Using radial grid of 1199 points,  6 beta functions with: 
                l(1) =   0
                l(2) =   0
                l(3) =   1
                l(4) =   1
                l(5) =   2
                l(6) =   2
     Q(r) pseudized with 0 coefficients 


     vdW kernel table read from file rVV10_kernel_table
     MD5 check sum: b8e2538accc0c0b3206b45ba4daaba6c

     atomic species   valence    mass     pseudopotential
        H              1.00     1.00794     H ( 1.00)
        C              4.00    12.01070     C ( 1.00)
        Cu            11.00    63.54600     Cu( 1.00)

     No symmetry found


                                    s                        frac. trans.

      isym =  1     identity                                     

 cryst.   s( 1) = (     1          0          0      )
                  (     0          1          0      )
                  (     0          0          1      )

 cart.    s( 1) = (  1.0000000  0.0000000  0.0000000 )
                  (  0.0000000  1.0000000  0.0000000 )
                  (  0.0000000  0.0000000  1.0000000 )


     point group C_1 (1)    
     there are  1 classes
     the character table:

       E    
A      1.00

     the symmetry operations in each class and the name of the first element:

     E        1
          identity                                               

   Cartesian axes

     site n.     atom                  positions (alat units)
         1           H   tau(   1) = (   0.2694937   0.4041452   0.1460270  )
         2           H   tau(   2) = (   0.3305063   0.4041452   0.1460270  )
         3           C   tau(   3) = (   0.0000000   0.0000000   0.0000000  )
         4           C   tau(   4) = (   0.0000000   0.1154701   0.0000000  )
         5           C   tau(   5) = (  -0.1000000   0.1732051   0.0000000  )
         6           C   tau(   6) = (  -0.1000000   0.2886751   0.0000000  )
         7           C   tau(   7) = (  -0.2000000   0.3464102   0.0000000  )
         8           C   tau(   8) = (  -0.2000000   0.4618802   0.0000000  )
         9           C   tau(   9) = (  -0.3000000   0.5196152   0.0000000  )
        10           C   tau(  10) = (  -0.3000000   0.6350853   0.0000000  )
        11           C   tau(  11) = (  -0.4000000   0.6928203   0.0000000  )
        12           C   tau(  12) = (  -0.4000000   0.8082904   0.0000000  )
        13           C   tau(  13) = (   0.2000000   0.0000000   0.0000000  )
        14           C   tau(  14) = (   0.2000000   0.1154701   0.0000000  )
        15           C   tau(  15) = (   0.1000000   0.1732051   0.0000000  )
        16           C   tau(  16) = (   0.1000000   0.2886751   0.0000000  )
        17           C   tau(  17) = (   0.0000000   0.3464102   0.0000000  )
        18           C   tau(  18) = (   0.0000000   0.4618802   0.0000000  )
        19           C   tau(  19) = (  -0.1000000   0.5196152   0.0000000  )
        20           C   tau(  20) = (  -0.1000000   0.6350853   0.0000000  )
        21           C   tau(  21) = (  -0.2000000   0.6928203   0.0000000  )
        22           C   tau(  22) = (  -0.2000000   0.8082904   0.0000000  )
        23           C   tau(  23) = (   0.4000000   0.0000000   0.0000000  )
        24           C   tau(  24) = (   0.4000000   0.1154701   0.0000000  )
        25           C   tau(  25) = (   0.3000000   0.1732051   0.0000000  )
        26           C   tau(  26) = (   0.3000000   0.2886751   0.0000000  )
        27           C   tau(  27) = (   0.2000000   0.3464102   0.0000000  )
        28           Cu  tau(  28) = (   0.2000000   0.4618802   0.0000000  )
        29           C   tau(  29) = (   0.1000000   0.5196152   0.0000000  )
        30           C   tau(  30) = (   0.1000000   0.6350853   0.0000000  )
        31           C   tau(  31) = (   0.0000000   0.6928203   0.0000000  )
        32           C   tau(  32) = (   0.0000000   0.8082904   0.0000000  )
        33           C   tau(  33) = (   0.6000000   0.0000000   0.0000000  )
        34           C   tau(  34) = (   0.6000000   0.1154701   0.0000000  )
        35           C   tau(  35) = (   0.5000000   0.1732051   0.0000000  )
        36           C   tau(  36) = (   0.5000000   0.2886751   0.0000000  )
        37           C   tau(  37) = (   0.4000000   0.3464102   0.0000000  )
        38           C   tau(  38) = (   0.4000000   0.4618802   0.0000000  )
        39           C   tau(  39) = (   0.3000000   0.5196152   0.0000000  )
        40           C   tau(  40) = (   0.3000000   0.6350853   0.0000000  )
        41           C   tau(  41) = (   0.2000000   0.6928203   0.0000000  )
        42           C   tau(  42) = (   0.2000000   0.8082904   0.0000000  )
        43           C   tau(  43) = (   0.8000000   0.0000000   0.0000000  )
        44           C   tau(  44) = (   0.8000000   0.1154701   0.0000000  )
        45           C   tau(  45) = (   0.7000000   0.1732051   0.0000000  )
        46           C   tau(  46) = (   0.7000000   0.2886751   0.0000000  )
        47           C   tau(  47) = (   0.6000000   0.3464102   0.0000000  )
        48           C   tau(  48) = (   0.6000000   0.4618802   0.0000000  )
        49           C   tau(  49) = (   0.5000000   0.5196152   0.0000000  )
        50           C   tau(  50) = (   0.5000000   0.6350853   0.0000000  )
        51           C   tau(  51) = (   0.4000000   0.6928203   0.0000000  )
        52           C   tau(  52) = (   0.4000000   0.8082904   0.0000000  )

   Crystallographic axes

     site n.     atom                  positions (cryst. coord.)
         1           H   tau(   1) = (  0.5028270  0.4666667  0.1800000  )
         2           H   tau(   2) = (  0.5638397  0.4666667  0.1800000  )
         3           C   tau(   3) = (  0.0000000  0.0000000  0.0000000  )
         4           C   tau(   4) = (  0.0666667  0.1333333  0.0000000  )
         5           C   tau(   5) = (  0.0000000  0.2000000  0.0000000  )
         6           C   tau(   6) = (  0.0666667  0.3333333  0.0000000  )
         7           C   tau(   7) = (  0.0000000  0.4000000  0.0000000  )
         8           C   tau(   8) = (  0.0666667  0.5333333  0.0000000  )
         9           C   tau(   9) = (  0.0000000  0.6000000  0.0000000  )
        10           C   tau(  10) = (  0.0666667  0.7333333  0.0000000  )
        11           C   tau(  11) = (  0.0000000  0.8000000  0.0000000  )
        12           C   tau(  12) = (  0.0666667  0.9333333  0.0000000  )
        13           C   tau(  13) = (  0.2000000  0.0000000  0.0000000  )
        14           C   tau(  14) = (  0.2666667  0.1333333  0.0000000  )
        15           C   tau(  15) = (  0.2000000  0.2000000  0.0000000  )
        16           C   tau(  16) = (  0.2666667  0.3333333  0.0000000  )
        17           C   tau(  17) = (  0.2000000  0.4000000  0.0000000  )
        18           C   tau(  18) = (  0.2666667  0.5333333  0.0000000  )
        19           C   tau(  19) = (  0.2000000  0.6000000  0.0000000  )
        20           C   tau(  20) = (  0.2666667  0.7333333  0.0000000  )
        21           C   tau(  21) = (  0.2000000  0.8000000  0.0000000  )
        22           C   tau(  22) = (  0.2666667  0.9333333  0.0000000  )
        23           C   tau(  23) = (  0.4000000  0.0000000  0.0000000  )
        24           C   tau(  24) = (  0.4666667  0.1333333  0.0000000  )
        25           C   tau(  25) = (  0.4000000  0.2000000  0.0000000  )
        26           C   tau(  26) = (  0.4666667  0.3333333  0.0000000  )
        27           C   tau(  27) = (  0.4000000  0.4000000  0.0000000  )
        28           Cu  tau(  28) = (  0.4666667  0.5333333  0.0000000  )
        29           C   tau(  29) = (  0.4000000  0.6000000  0.0000000  )
        30           C   tau(  30) = (  0.4666667  0.7333333  0.0000000  )
        31           C   tau(  31) = (  0.4000000  0.8000000  0.0000000  )
        32           C   tau(  32) = (  0.4666667  0.9333333  0.0000000  )
        33           C   tau(  33) = (  0.6000000  0.0000000  0.0000000  )
        34           C   tau(  34) = (  0.6666667  0.1333333  0.0000000  )
        35           C   tau(  35) = (  0.6000000  0.2000000  0.0000000  )
        36           C   tau(  36) = (  0.6666667  0.3333333  0.0000000  )
        37           C   tau(  37) = (  0.6000000  0.4000000  0.0000000  )
        38           C   tau(  38) = (  0.6666667  0.5333333  0.0000000  )
        39           C   tau(  39) = (  0.6000000  0.6000000  0.0000000  )
        40           C   tau(  40) = (  0.6666667  0.7333333  0.0000000  )
        41           C   tau(  41) = (  0.6000000  0.8000000  0.0000000  )
        42           C   tau(  42) = (  0.6666667  0.9333333  0.0000000  )
        43           C   tau(  43) = (  0.8000000  0.0000000  0.0000000  )
        44           C   tau(  44) = (  0.8666667  0.1333333  0.0000000  )
        45           C   tau(  45) = (  0.8000000  0.2000000  0.0000000  )
        46           C   tau(  46) = (  0.8666667  0.3333333  0.0000000  )
        47           C   tau(  47) = (  0.8000000  0.4000000  0.0000000  )
        48           C   tau(  48) = (  0.8666667  0.5333333  0.0000000  )
        49           C   tau(  49) = (  0.8000000  0.6000000  0.0000000  )
        50           C   tau(  50) = (  0.8666667  0.7333333  0.0000000  )
        51           C   tau(  51) = (  0.8000000  0.8000000  0.0000000  )
        52           C   tau(  52) = (  0.8666667  0.9333333  0.0000000  )

     number of k points=     1  Marzari-Vanderbilt smearing, width (Ry)=  0.0010
                       cart. coord. in units 2pi/alat
        k(    1) = (   0.0000000   0.0000000   0.0000000), wk =   2.0000000

                       cryst. coord.
        k(    1) = (   0.0000000   0.0000000   0.0000000), wk =   2.0000000

     Dense  grid:  1626001 G-vectors     FFT dimensions: ( 180, 180, 135)

     Smooth grid:   702581 G-vectors     FFT dimensions: ( 125, 125, 108)

     Dynamical RAM for                 wfc:      28.14 MB

     Dynamical RAM for     wfc (w. buffer):      28.14 MB

     Dynamical RAM for           str. fact:      12.41 MB

     Dynamical RAM for           local pot:       0.00 MB

     Dynamical RAM for          nlocal pot:      92.46 MB

     Dynamical RAM for                qrad:      19.73 MB

     Dynamical RAM for          rho,v,vnew:      29.46 MB

     Dynamical RAM for               rhoin:       9.82 MB

     Dynamical RAM for            rho*nmix:      66.16 MB

     Dynamical RAM for           G-vectors:      16.40 MB

     Dynamical RAM for          h,s,v(r/c):      11.63 MB

     Dynamical RAM for          <psi|beta>:       0.80 MB

     Dynamical RAM for                 psi:     112.56 MB

     Dynamical RAM for                hpsi:     112.56 MB

     Dynamical RAM for                spsi:     112.56 MB

     Dynamical RAM for      wfcinit/wfcrot:      93.45 MB

     Dynamical RAM for           addusdens:     971.75 MB

     Estimated static dynamical RAM per process >     319.55 MB

     Estimated max dynamical RAM per process >       1.26 GB

     Estimated total dynamical RAM >       7.57 GB

     Check: negative core charge=   -0.000002

     Initial potential from superposition of free atoms

     starting charge  208.80532, renormalised to  209.00000

     negative rho (up, down):  7.744E-05 0.000E+00


---------------------------------------------------------------------------------
Carrying out rVV10 run using the following parameters:
Nqs =      20    Nr_points =    1024   r_max =   100.000
b_value =  6.30000    beta =  0.00901
     q_mesh =  0.00010000  0.00030000  0.00058939  0.00100810
               0.00161396  0.00249058  0.00375900  0.00559430
               0.00824984  0.01209221  0.01765183  0.02569619
               0.03733578  0.05417739  0.07854596  0.11380545
               0.16482331  0.23864234  0.34545298  0.50000000

Gradients computed in Reciprocal space

---------------------------------------------------------------------------------


     Starting wfcs are  207 randomized atomic wfcs

     total cpu time spent up to now is       52.2 secs

     Self-consistent Calculation

     iteration #  1     ecut=    70.00 Ry     beta= 0.70
     Davidson diagonalization with overlap
     ethr =  1.00E-02,  avg # of iterations =  3.0

     negative rho (up, down):  1.958E-04 0.000E+00

     total cpu time spent up to now is    51462.1 secs

     total energy              =    -732.15866023 Ry
     Harris-Foulkes estimate   =    -737.67056093 Ry
     estimated scf accuracy    <       8.15914256 Ry

     iteration #  2     ecut=    70.00 Ry     beta= 0.70
     Davidson diagonalization with overlap
     ethr =  3.90E-03,  avg # of iterations =  5.0

     negative rho (up, down):  2.450E-04 0.000E+00

     total cpu time spent up to now is    51530.5 secs

     total energy              =    -731.45565700 Ry
     Harris-Foulkes estimate   =    -737.22309375 Ry
     estimated scf accuracy    <      11.61676040 Ry

     iteration #  3     ecut=    70.00 Ry     beta= 0.70
     Davidson diagonalization with overlap
     ethr =  3.90E-03,  avg # of iterations =  4.0

     negative rho (up, down):  3.011E-04 0.000E+00

     total cpu time spent up to now is    51587.4 secs

     total energy              =    -732.76555175 Ry
     Harris-Foulkes estimate   =    -735.97875985 Ry
     estimated scf accuracy    <      10.64718190 Ry

     iteration #  4     ecut=    70.00 Ry     beta= 0.70
     Davidson diagonalization with overlap
     ethr =  3.90E-03,  avg # of iterations =  3.0

     negative rho (up, down):  3.284E-04 0.000E+00

     total cpu time spent up to now is    51642.4 secs

     total energy              =    -733.95414321 Ry
     Harris-Foulkes estimate   =    -735.30435387 Ry
     estimated scf accuracy    <       6.63859728 Ry

     iteration #  5     ecut=    70.00 Ry     beta= 0.70
     Davidson diagonalization with overlap
     ethr =  3.18E-03,  avg # of iterations =  2.0

     negative rho (up, down):  3.595E-04 0.000E+00

     total cpu time spent up to now is    51692.1 secs

     total energy              =    -734.62226128 Ry
     Harris-Foulkes estimate   =    -734.76668415 Ry
     estimated scf accuracy    <       0.43732205 Ry

     iteration #  6     ecut=    70.00 Ry     beta= 0.70
     Davidson diagonalization with overlap
     ethr =  2.09E-04,  avg # of iterations = 10.0

     negative rho (up, down):  3.891E-04 0.000E+00

     total cpu time spent up to now is    51751.7 secs

     total energy              =    -734.67738302 Ry
     Harris-Foulkes estimate   =    -734.72068791 Ry
     estimated scf accuracy    <       0.15805178 Ry

     iteration #  7     ecut=    70.00 Ry     beta= 0.70
     Davidson diagonalization with overlap
     ethr =  7.56E-05,  avg # of iterations =  7.0

     negative rho (up, down):  4.395E-04 0.000E+00

     total cpu time spent up to now is    51803.7 secs

     total energy              =    -734.68158187 Ry
     Harris-Foulkes estimate   =    -734.69586196 Ry
     estimated scf accuracy    <       0.05699052 Ry

     iteration #  8     ecut=    70.00 Ry     beta= 0.70
     Davidson diagonalization with overlap
     ethr =  2.73E-05,  avg # of iterations =  3.0

     negative rho (up, down):  4.915E-04 0.000E+00

     total cpu time spent up to now is    51855.2 secs

     total energy              =    -734.68767861 Ry
     Harris-Foulkes estimate   =    -734.69786554 Ry
     estimated scf accuracy    <       0.05362685 Ry

     iteration #  9     ecut=    70.00 Ry     beta= 0.70
     Davidson diagonalization with overlap
     ethr =  2.57E-05,  avg # of iterations =  2.0

     negative rho (up, down):  5.273E-04 0.000E+00

     total cpu time spent up to now is    51904.5 secs

     total energy              =    -734.68742809 Ry
     Harris-Foulkes estimate   =    -734.69217841 Ry
     estimated scf accuracy    <       0.02939056 Ry

     iteration # 10     ecut=    70.00 Ry     beta= 0.70
     Davidson diagonalization with overlap
     ethr =  1.41E-05,  avg # of iterations =  2.0

     negative rho (up, down):  6.666E-04 0.000E+00

     total cpu time spent up to now is    51953.9 secs

     total energy              =    -734.68755343 Ry
     Harris-Foulkes estimate   =    -734.69138930 Ry
     estimated scf accuracy    <       0.02962786 Ry

     iteration # 11     ecut=    70.00 Ry     beta= 0.70
     Davidson diagonalization with overlap
     ethr =  1.41E-05,  avg # of iterations =  1.0

     negative rho (up, down):  6.828E-04 0.000E+00

     total cpu time spent up to now is    52003.0 secs

     total energy              =    -734.68821833 Ry
     Harris-Foulkes estimate   =    -734.68897287 Ry
     estimated scf accuracy    <       0.00974738 Ry

     iteration # 12     ecut=    70.00 Ry     beta= 0.70
     Davidson diagonalization with overlap
     ethr =  4.66E-06,  avg # of iterations =  3.0

     negative rho (up, down):  6.632E-04 0.000E+00

     total cpu time spent up to now is    52052.8 secs

     total energy              =    -734.68854703 Ry
     Harris-Foulkes estimate   =    -734.68893983 Ry
     estimated scf accuracy    <       0.00868938 Ry

     iteration # 13     ecut=    70.00 Ry     beta= 0.70
     Davidson diagonalization with overlap
     ethr =  4.16E-06,  avg # of iterations =  1.0

     negative rho (up, down):  7.073E-04 0.000E+00

     total cpu time spent up to now is    52101.8 secs

     total energy              =    -734.68865503 Ry
     Harris-Foulkes estimate   =    -734.68879807 Ry
     estimated scf accuracy    <       0.00045571 Ry

     iteration # 14     ecut=    70.00 Ry     beta= 0.70
     Davidson diagonalization with overlap
     ethr =  2.18E-07,  avg # of iterations =  3.0

     negative rho (up, down):  7.022E-04 0.000E+00

     total cpu time spent up to now is    52154.0 secs

     total energy              =    -734.68866626 Ry
     Harris-Foulkes estimate   =    -734.68875288 Ry
     estimated scf accuracy    <       0.00161280 Ry

     iteration # 15     ecut=    70.00 Ry     beta= 0.70
     Davidson diagonalization with overlap
     ethr =  2.18E-07,  avg # of iterations =  1.0

     negative rho (up, down):  7.012E-04 0.000E+00

     total cpu time spent up to now is    52203.0 secs

     total energy              =    -734.68871354 Ry
     Harris-Foulkes estimate   =    -734.68874142 Ry
     estimated scf accuracy    <       0.00091272 Ry

     iteration # 16     ecut=    70.00 Ry     beta= 0.70
     Davidson diagonalization with overlap
     ethr =  2.18E-07,  avg # of iterations =  1.0

     negative rho (up, down):  6.990E-04 0.000E+00

     total cpu time spent up to now is    52252.1 secs

     total energy              =    -734.68872669 Ry
     Harris-Foulkes estimate   =    -734.68872806 Ry
     estimated scf accuracy    <       0.00001869 Ry

     iteration # 17     ecut=    70.00 Ry     beta= 0.70
     Davidson diagonalization with overlap
     ethr =  8.94E-09,  avg # of iterations =  2.0

     negative rho (up, down):  6.992E-04 0.000E+00

     total cpu time spent up to now is    52301.4 secs

     total energy              =    -734.68872712 Ry
     Harris-Foulkes estimate   =    -734.68872798 Ry
     estimated scf accuracy    <       0.00002157 Ry

     iteration # 18     ecut=    70.00 Ry     beta= 0.70
     Davidson diagonalization with overlap
     ethr =  8.94E-09,  avg # of iterations =  1.0

     negative rho (up, down):  6.994E-04 0.000E+00

     total cpu time spent up to now is    52350.4 secs

     total energy              =    -734.68872736 Ry
     Harris-Foulkes estimate   =    -734.68872754 Ry
     estimated scf accuracy    <       0.00000306 Ry

     iteration # 19     ecut=    70.00 Ry     beta= 0.70
     Davidson diagonalization with overlap
     ethr =  1.46E-09,  avg # of iterations =  1.0

     negative rho (up, down):  6.992E-04 0.000E+00

     total cpu time spent up to now is    52399.3 secs

     End of self-consistent calculation

          k = 0.0000 0.0000 0.0000 ( 87777 PWs)   bands (ev):

   -19.8552 -19.0187 -18.9959 -18.9287 -18.9224 -18.8658 -18.7646 -17.1719
   -17.1684 -17.1447 -17.1265 -17.0953 -16.8219 -16.3361 -16.3279 -16.2114
   -16.1938 -16.1824 -15.7619 -14.4072 -14.3983 -14.1396 -14.0555 -14.0510
   -13.5869 -13.1839 -13.1756 -13.0971 -12.9632 -12.9386 -12.6243 -12.2839
   -12.2800 -11.7347 -11.6277 -11.6142 -11.1585 -10.8963 -10.8944  -9.5254
    -9.4000  -9.3757  -9.3154  -9.2622  -9.2530  -9.2496  -9.2414  -9.0568
    -9.0535  -9.0498  -8.9225  -8.7259  -8.7172  -8.2275  -7.9069  -7.8726
    -7.6821  -7.6624  -7.5645  -7.5479  -7.4352  -6.9294  -6.8641  -6.8564
    -6.8178  -6.8061  -6.7425  -6.7241  -6.6345  -6.6257  -6.5945  -6.5909
    -6.5867  -6.5443  -6.4028  -6.4026  -5.8316  -5.6218  -5.6154  -5.0405
    -4.9757  -4.9049  -4.8983  -4.8857  -4.7827  -4.7475  -4.6683  -4.5613
    -4.5284  -4.2069  -3.8824  -3.8410  -3.8293  -3.8241  -3.7855  -3.6670
    -3.5847  -3.1769  -1.9145  -1.8521  -1.8465  -1.7724  -1.7475  -1.2728
    -0.6558  -0.6542   0.8757   0.9257   0.9289   1.0779   1.0902   1.4725
     2.5531   2.7658   2.7744   2.8136   2.9139   2.9377   3.3748   3.6531
     3.7382   3.7974   3.8035   3.8180   4.0113   4.2293

     occupation numbers 
     1.0000   1.0000   1.0000   1.0000   1.0000   1.0000   1.0000   1.0000
     1.0000   1.0000   1.0000   1.0000   1.0000   1.0000   1.0000   1.0000
     1.0000   1.0000   1.0000   1.0000   1.0000   1.0000   1.0000   1.0000
     1.0000   1.0000   1.0000   1.0000   1.0000   1.0000   1.0000   1.0000
     1.0000   1.0000   1.0000   1.0000   1.0000   1.0000   1.0000   1.0000
     1.0000   1.0000   1.0000   1.0000   1.0000   1.0000   1.0000   1.0000
     1.0000   1.0000   1.0000   1.0000   1.0000   1.0000   1.0000   1.0000
     1.0000   1.0000   1.0000   1.0000   1.0000   1.0000   1.0000   1.0000
     1.0000   1.0000   1.0000   1.0000   1.0000   1.0000   1.0000   1.0000
     1.0000   1.0000   1.0000   1.0000   1.0000   1.0000   1.0000   1.0000
     1.0000   1.0000   1.0000   1.0000   1.0000   1.0000   1.0000   1.0000
     1.0000   1.0000   1.0000   1.0000   1.0000   1.0000   1.0000   1.0000
     1.0000   1.0000   1.0000   1.0000   1.0000   1.0000   1.0000   1.0000
     0.2826   0.2174   0.0000   0.0000   0.0000   0.0000   0.0000   0.0000
     0.0000   0.0000   0.0000   0.0000   0.0000   0.0000   0.0000   0.0000
     0.0000   0.0000   0.0000   0.0000   0.0000   0.0000

     the Fermi energy is    -0.6584 ev

!    total energy              =    -734.68872739 Ry
     Harris-Foulkes estimate   =    -734.68872746 Ry
     estimated scf accuracy    <       0.00000012 Ry

     The total energy is the sum of the following terms:

     one-electron contribution =   -2519.71889048 Ry
     hartree contribution      =    1315.49217571 Ry
     xc contribution           =    -276.02652139 Ry
     ewald contribution        =     745.56511829 Ry
     smearing contrib. (-TS)   =      -0.00060951 Ry

     convergence has been achieved in  19 iterations

     Writing output data file distance-1.8.save/

     init_run     :     49.82s CPU     51.02s WALL (       1 calls)
     electrons    :    987.09s CPU  52347.22s WALL (       1 calls)

     Called by init_run:
     wfcinit      :     26.34s CPU     26.50s WALL (       1 calls)
     wfcinit:atom :      0.02s CPU      0.05s WALL (       1 calls)
     wfcinit:wfcr :     26.15s CPU     26.23s WALL (       1 calls)
     potinit      :     10.78s CPU     11.14s WALL (       1 calls)
     hinit0       :      7.18s CPU      7.20s WALL (       1 calls)

     Called by electrons:
     c_bands      :    588.66s CPU    592.29s WALL (      19 calls)
     sum_band     :    197.21s CPU    207.79s WALL (      19 calls)
     v_of_rho     :    123.42s CPU  51459.94s WALL (      20 calls)
     v_h          :      1.44s CPU      1.50s WALL (      20 calls)
     v_xc         :    121.98s CPU  51458.45s WALL (      20 calls)
     newd         :     83.45s CPU     93.66s WALL (      20 calls)
     mix_rho      :      3.80s CPU      3.88s WALL (      19 calls)

     Called by c_bands:
     init_us_2    :      1.77s CPU      1.82s WALL (      39 calls)
     cegterg      :    584.23s CPU    587.84s WALL (      19 calls)

     Called by sum_band:
     sum_band:bec :      0.01s CPU      0.01s WALL (      19 calls)
     addusdens    :    122.80s CPU    132.91s WALL (      19 calls)

     Called by *egterg:
     h_psi        :    320.59s CPU    323.12s WALL (      75 calls)
     s_psi        :    108.43s CPU    108.51s WALL (      75 calls)
     g_psi        :      0.32s CPU      0.32s WALL (      55 calls)
     cdiaghg      :      4.73s CPU      4.74s WALL (      74 calls)
     cegterg:over :     68.30s CPU     68.33s WALL (      55 calls)
     cegterg:upda :     40.83s CPU     41.12s WALL (      55 calls)
     cegterg:last :     30.60s CPU     30.61s WALL (      19 calls)

     Called by h_psi:
     h_psi:pot    :    320.20s CPU    322.34s WALL (      75 calls)
     h_psi:calbec :    107.98s CPU    108.06s WALL (      75 calls)
     vloc_psi     :    103.93s CPU    105.96s WALL (      75 calls)
     add_vuspsi   :    108.28s CPU    108.32s WALL (      75 calls)

     General routines
     calbec       :    154.04s CPU    154.16s WALL (      94 calls)
     fft          :     68.22s CPU     70.94s WALL (    1258 calls)
     ffts         :      0.74s CPU      0.75s WALL (      39 calls)
     fftw         :    110.39s CPU    112.55s WALL (   13346 calls)
     interpolate  :      1.78s CPU      1.81s WALL (      20 calls)

     Parallel routines
     fft_scatt_xy :     32.38s CPU     32.80s WALL (   14643 calls)
     fft_scatt_yz :     57.34s CPU     60.78s WALL (   14643 calls)

     PWSCF        :  17m18.15s CPU     14h33m WALL


   This run was terminated on:  13: 8:52  26Jul2022            

=------------------------------------------------------------------------------=
   JOB DONE.
=------------------------------------------------------------------------------=
