
     Program PWSCF v.6.4.1 starts on 30Dec2022 at  1:19:50 

     This program is part of the open-source Quantum ESPRESSO suite
     for quantum simulation of materials; please cite
         "P. Giannozzi et al., J. Phys.:Condens. Matter 21 395502 (2009);
         "P. Giannozzi et al., J. Phys.:Condens. Matter 29 465901 (2017);
          URL http://www.quantum-espresso.org", 
     in publications or presentations arising from this work. More details at
     http://www.quantum-espresso.org/quote

     Parallel version (MPI), running on     6 processors

     MPI processes distributed on     1 nodes
     R & G space division:  proc/nbgrp/npool/nimage =       6
     Reading input from distance-2.8.in

     Current dimensions of program PWSCF are:
     Max number of different atomic species (ntypx) = 10
     Max number of k-points (npk) =  40000
     Max angular momentum in pseudopotentials (lmaxx) =  3

     IMPORTANT: XC functional enforced from input :
     Exchange-correlation      = RVV10 ( 1  4 13  4 3 0)
     Any further DFT definition will be discarded
     Please, verify this is what you really want

               file H.pbe-rrkjus.UPF: wavefunction(s)  1S renormalized

     Subspace diagonalization in iterative solution of the eigenvalue problem:
     a serial algorithm will be used


     Parallelization info
     --------------------
     sticks:   dense  smooth     PW     G-vecs:    dense   smooth      PW
     Min        3051    1746    432               270999   117096   14629
     Max        3053    1747    437               271001   117099   14630
     Sum       18313   10477   2611              1626001   702581   87777



     bravais-lattice index     =            4
     lattice parameter (alat)  =      23.2937  a.u.
     unit-cell volume          =    8879.8548 (a.u.)^3
     number of atoms/cell      =           52
     number of atomic types    =            3
     number of electrons       =       216.00
     number of Kohn-Sham states=          130
     kinetic-energy cutoff     =      70.0000  Ry
     charge density cutoff     =     490.0000  Ry
     convergence threshold     =      1.0E-06
     mixing beta               =       0.7000
     number of iterations used =            8  plain     mixing
     Exchange-correlation      = RVV10 ( 1  4 13  4 3 0)

     celldm(1)=  23.293684  celldm(2)=   0.000000  celldm(3)=   0.811261
     celldm(4)=   0.000000  celldm(5)=   0.000000  celldm(6)=   0.000000

     crystal axes: (cart. coord. in units of alat)
               a(1) = (   1.000000   0.000000   0.000000 )  
               a(2) = (  -0.500000   0.866025   0.000000 )  
               a(3) = (   0.000000   0.000000   0.811261 )  

     reciprocal axes: (cart. coord. in units 2 pi/alat)
               b(1) = (  1.000000  0.577350 -0.000000 )  
               b(2) = (  0.000000  1.154701  0.000000 )  
               b(3) = (  0.000000 -0.000000  1.232649 )  


     PseudoPot. # 1 for H  read from file:
     /home/cristian/Escritorio/Proyecto_Grafeno/pseudopotenciales/H.pbe-rrkjus.UPF
     MD5 check sum: 7cc9d459525c9a0585f487a71c3c9563
     Pseudo is Ultrasoft, Zval =  1.0
     Generated by new atomic code, or converted to UPF format
     Using radial grid of 1061 points,  2 beta functions with: 
                l(1) =   0
                l(2) =   0
     Q(r) pseudized with 0 coefficients 


     PseudoPot. # 2 for C  read from file:
     /home/cristian/Escritorio/Proyecto_Grafeno/pseudopotenciales/C.pbe-n-rrkjus_psl.1.0.0.UPF
     MD5 check sum: 1fdd950c42eb37d8afe3dd2f8d12311e
     Pseudo is Ultrasoft + core correction, Zval =  4.0
     Generated using "atomic" code by A. Dal Corso v.6.3MaX
     Using radial grid of 1073 points,  4 beta functions with: 
                l(1) =   0
                l(2) =   0
                l(3) =   1
                l(4) =   1
     Q(r) pseudized with 0 coefficients 


     PseudoPot. # 3 for Ni read from file:
     /home/cristian/Escritorio/Proyecto_Grafeno/pseudopotenciales/Ni.pbe-spn-rrkjus_psl.1.0.0.UPF
     MD5 check sum: 8b3fc9aac6dafe35f580d41bb18c3945
     Pseudo is Ultrasoft + core correction, Zval = 18.0
     Generated using "atomic" code by A. Dal Corso v.6.3
     Using radial grid of 1195 points,  6 beta functions with: 
                l(1) =   0
                l(2) =   0
                l(3) =   1
                l(4) =   1
                l(5) =   2
                l(6) =   2
     Q(r) pseudized with 0 coefficients 


     vdW kernel table read from file rVV10_kernel_table
     MD5 check sum: b8e2538accc0c0b3206b45ba4daaba6c

     atomic species   valence    mass     pseudopotential
        H              1.00     1.00794     H ( 1.00)
        C              4.00    12.01070     C ( 1.00)
        Ni            18.00    58.69340     Ni( 1.00)

     Starting magnetic structure 
     atomic species   magnetization
        H            0.500
        C            0.300
        Ni           0.800

      2 Sym. Ops. (no inversion) found


                                    s                        frac. trans.

      isym =  1     identity                                     

 cryst.   s( 1) = (     1          0          0      )
                  (     0          1          0      )
                  (     0          0          1      )

 cart.    s( 1) = (  1.0000000  0.0000000  0.0000000 )
                  (  0.0000000  1.0000000  0.0000000 )
                  (  0.0000000  0.0000000  1.0000000 )


      isym =  2     inv. 180 deg rotation - cryst. axis [1,1,0]  

 cryst.   s( 2) = (     0         -1          0      )
                  (    -1          0          0      )
                  (     0          0          1      )

 cart.    s( 2) = (  0.5000000 -0.8660254  0.0000000 )
                  ( -0.8660254 -0.5000000  0.0000000 )
                  (  0.0000000  0.0000000  1.0000000 )


     point group C_s (m)    
     there are  2 classes
     the character table:

       E     s    
A'     1.00  1.00
A''    1.00 -1.00

     the symmetry operations in each class and the name of the first element:

     E        1
          identity                                               
     s        2
          inv. 180 deg rotation - cryst. axis [1,1,0]            

   Cartesian axes

     site n.     atom                  positions (alat units)
         1           H   tau(   1) = (   0.3000000   0.4041452   0.2271531  )
         2           H   tau(   2) = (   0.3000000   0.4041452   0.2881658  )
         3           C   tau(   3) = (   0.0000000   0.0000000   0.0000000  )
         4           C   tau(   4) = (   0.0000000   0.1154701   0.0000000  )
         5           C   tau(   5) = (  -0.1000000   0.1732051   0.0000000  )
         6           C   tau(   6) = (  -0.1000000   0.2886751   0.0000000  )
         7           C   tau(   7) = (  -0.2000000   0.3464102   0.0000000  )
         8           C   tau(   8) = (  -0.2000000   0.4618802   0.0000000  )
         9           C   tau(   9) = (  -0.3000000   0.5196152   0.0000000  )
        10           C   tau(  10) = (  -0.3000000   0.6350853   0.0000000  )
        11           C   tau(  11) = (  -0.4000000   0.6928203   0.0000000  )
        12           C   tau(  12) = (  -0.4000000   0.8082904   0.0000000  )
        13           C   tau(  13) = (   0.2000000   0.0000000   0.0000000  )
        14           C   tau(  14) = (   0.2000000   0.1154701   0.0000000  )
        15           C   tau(  15) = (   0.1000000   0.1732051   0.0000000  )
        16           C   tau(  16) = (   0.1000000   0.2886751   0.0000000  )
        17           C   tau(  17) = (   0.0000000   0.3464102   0.0000000  )
        18           C   tau(  18) = (   0.0000000   0.4618802   0.0000000  )
        19           C   tau(  19) = (  -0.1000000   0.5196152   0.0000000  )
        20           C   tau(  20) = (  -0.1000000   0.6350853   0.0000000  )
        21           C   tau(  21) = (  -0.2000000   0.6928203   0.0000000  )
        22           C   tau(  22) = (  -0.2000000   0.8082904   0.0000000  )
        23           C   tau(  23) = (   0.4000000   0.0000000   0.0000000  )
        24           C   tau(  24) = (   0.4000000   0.1154701   0.0000000  )
        25           C   tau(  25) = (   0.3000000   0.1732051   0.0000000  )
        26           C   tau(  26) = (   0.3000000   0.2886751   0.0000000  )
        27           C   tau(  27) = (   0.2000000   0.3464102   0.0000000  )
        28           Ni  tau(  28) = (   0.2000000   0.4618802   0.0000000  )
        29           C   tau(  29) = (   0.1000000   0.5196152   0.0000000  )
        30           C   tau(  30) = (   0.1000000   0.6350853   0.0000000  )
        31           C   tau(  31) = (   0.0000000   0.6928203   0.0000000  )
        32           C   tau(  32) = (   0.0000000   0.8082904   0.0000000  )
        33           C   tau(  33) = (   0.6000000   0.0000000   0.0000000  )
        34           C   tau(  34) = (   0.6000000   0.1154701   0.0000000  )
        35           C   tau(  35) = (   0.5000000   0.1732051   0.0000000  )
        36           C   tau(  36) = (   0.5000000   0.2886751   0.0000000  )
        37           C   tau(  37) = (   0.4000000   0.3464102   0.0000000  )
        38           C   tau(  38) = (   0.4000000   0.4618802   0.0000000  )
        39           C   tau(  39) = (   0.3000000   0.5196152   0.0000000  )
        40           C   tau(  40) = (   0.3000000   0.6350853   0.0000000  )
        41           C   tau(  41) = (   0.2000000   0.6928203   0.0000000  )
        42           C   tau(  42) = (   0.2000000   0.8082904   0.0000000  )
        43           C   tau(  43) = (   0.8000000   0.0000000   0.0000000  )
        44           C   tau(  44) = (   0.8000000   0.1154701   0.0000000  )
        45           C   tau(  45) = (   0.7000000   0.1732051   0.0000000  )
        46           C   tau(  46) = (   0.7000000   0.2886751   0.0000000  )
        47           C   tau(  47) = (   0.6000000   0.3464102   0.0000000  )
        48           C   tau(  48) = (   0.6000000   0.4618802   0.0000000  )
        49           C   tau(  49) = (   0.5000000   0.5196152   0.0000000  )
        50           C   tau(  50) = (   0.5000000   0.6350853   0.0000000  )
        51           C   tau(  51) = (   0.4000000   0.6928203   0.0000000  )
        52           C   tau(  52) = (   0.4000000   0.8082904   0.0000000  )

   Crystallographic axes

     site n.     atom                  positions (cryst. coord.)
         1           H   tau(   1) = (  0.5333333  0.4666667  0.2800000  )
         2           H   tau(   2) = (  0.5333333  0.4666667  0.3552072  )
         3           C   tau(   3) = (  0.0000000  0.0000000  0.0000000  )
         4           C   tau(   4) = (  0.0666667  0.1333333  0.0000000  )
         5           C   tau(   5) = (  0.0000000  0.2000000  0.0000000  )
         6           C   tau(   6) = (  0.0666667  0.3333333  0.0000000  )
         7           C   tau(   7) = (  0.0000000  0.4000000  0.0000000  )
         8           C   tau(   8) = (  0.0666667  0.5333333  0.0000000  )
         9           C   tau(   9) = (  0.0000000  0.6000000  0.0000000  )
        10           C   tau(  10) = (  0.0666667  0.7333333  0.0000000  )
        11           C   tau(  11) = (  0.0000000  0.8000000  0.0000000  )
        12           C   tau(  12) = (  0.0666667  0.9333333  0.0000000  )
        13           C   tau(  13) = (  0.2000000  0.0000000  0.0000000  )
        14           C   tau(  14) = (  0.2666667  0.1333333  0.0000000  )
        15           C   tau(  15) = (  0.2000000  0.2000000  0.0000000  )
        16           C   tau(  16) = (  0.2666667  0.3333333  0.0000000  )
        17           C   tau(  17) = (  0.2000000  0.4000000  0.0000000  )
        18           C   tau(  18) = (  0.2666667  0.5333333  0.0000000  )
        19           C   tau(  19) = (  0.2000000  0.6000000  0.0000000  )
        20           C   tau(  20) = (  0.2666667  0.7333333  0.0000000  )
        21           C   tau(  21) = (  0.2000000  0.8000000  0.0000000  )
        22           C   tau(  22) = (  0.2666667  0.9333333  0.0000000  )
        23           C   tau(  23) = (  0.4000000  0.0000000  0.0000000  )
        24           C   tau(  24) = (  0.4666667  0.1333333  0.0000000  )
        25           C   tau(  25) = (  0.4000000  0.2000000  0.0000000  )
        26           C   tau(  26) = (  0.4666667  0.3333333  0.0000000  )
        27           C   tau(  27) = (  0.4000000  0.4000000  0.0000000  )
        28           Ni  tau(  28) = (  0.4666667  0.5333333  0.0000000  )
        29           C   tau(  29) = (  0.4000000  0.6000000  0.0000000  )
        30           C   tau(  30) = (  0.4666667  0.7333333  0.0000000  )
        31           C   tau(  31) = (  0.4000000  0.8000000  0.0000000  )
        32           C   tau(  32) = (  0.4666667  0.9333333  0.0000000  )
        33           C   tau(  33) = (  0.6000000  0.0000000  0.0000000  )
        34           C   tau(  34) = (  0.6666667  0.1333333  0.0000000  )
        35           C   tau(  35) = (  0.6000000  0.2000000  0.0000000  )
        36           C   tau(  36) = (  0.6666667  0.3333333  0.0000000  )
        37           C   tau(  37) = (  0.6000000  0.4000000  0.0000000  )
        38           C   tau(  38) = (  0.6666667  0.5333333  0.0000000  )
        39           C   tau(  39) = (  0.6000000  0.6000000  0.0000000  )
        40           C   tau(  40) = (  0.6666667  0.7333333  0.0000000  )
        41           C   tau(  41) = (  0.6000000  0.8000000  0.0000000  )
        42           C   tau(  42) = (  0.6666667  0.9333333  0.0000000  )
        43           C   tau(  43) = (  0.8000000  0.0000000  0.0000000  )
        44           C   tau(  44) = (  0.8666667  0.1333333  0.0000000  )
        45           C   tau(  45) = (  0.8000000  0.2000000  0.0000000  )
        46           C   tau(  46) = (  0.8666667  0.3333333  0.0000000  )
        47           C   tau(  47) = (  0.8000000  0.4000000  0.0000000  )
        48           C   tau(  48) = (  0.8666667  0.5333333  0.0000000  )
        49           C   tau(  49) = (  0.8000000  0.6000000  0.0000000  )
        50           C   tau(  50) = (  0.8666667  0.7333333  0.0000000  )
        51           C   tau(  51) = (  0.8000000  0.8000000  0.0000000  )
        52           C   tau(  52) = (  0.8666667  0.9333333  0.0000000  )

     number of k points=     1  Marzari-Vanderbilt smearing, width (Ry)=  0.0010
                       cart. coord. in units 2pi/alat
        k(    1) = (   0.0000000   0.0000000   0.0000000), wk =   1.0000000

                       cryst. coord.
        k(    1) = (   0.0000000   0.0000000   0.0000000), wk =   1.0000000

     Dense  grid:  1626001 G-vectors     FFT dimensions: ( 180, 180, 135)

     Smooth grid:   702581 G-vectors     FFT dimensions: ( 125, 125, 108)

     Dynamical RAM for                 wfc:      29.03 MB

     Dynamical RAM for     wfc (w. buffer):      87.10 MB

     Dynamical RAM for           str. fact:      12.41 MB

     Dynamical RAM for           local pot:       0.00 MB

     Dynamical RAM for          nlocal pot:      92.46 MB

     Dynamical RAM for                qrad:      19.73 MB

     Dynamical RAM for          rho,v,vnew:      58.92 MB

     Dynamical RAM for               rhoin:      19.64 MB

     Dynamical RAM for            rho*nmix:     132.32 MB

     Dynamical RAM for           G-vectors:      16.40 MB

     Dynamical RAM for          h,s,v(r/c):      12.38 MB

     Dynamical RAM for          <psi|beta>:       0.82 MB

     Dynamical RAM for                 psi:     116.14 MB

     Dynamical RAM for                hpsi:     116.14 MB

     Dynamical RAM for                spsi:     116.14 MB

     Dynamical RAM for      wfcinit/wfcrot:      93.90 MB

     Dynamical RAM for           addusdens:     975.89 MB

     Estimated static dynamical RAM per process >     489.64 MB

     Estimated max dynamical RAM per process >       1.43 GB

     Estimated total dynamical RAM >       8.59 GB
     Generating pointlists ...
     new r_m :   0.0252 (alat units)  0.5862 (a.u.) for type    1
     new r_m :   0.0476 (alat units)  1.1095 (a.u.) for type    2
     new r_m :   0.0476 (alat units)  1.1095 (a.u.) for type    3

     Check: negative core charge=   -0.000002

     Initial potential from superposition of free atoms

     starting charge  215.80530, renormalised to  216.00000

     negative rho (up, down):  1.419E-04 1.524E-02


---------------------------------------------------------------------------------
Carrying out rVV10 run using the following parameters:
Nqs =      20    Nr_points =    1024   r_max =   100.000
b_value =  6.30000    beta =  0.00901
     q_mesh =  0.00010000  0.00030000  0.00058939  0.00100810
               0.00161396  0.00249058  0.00375900  0.00559430
               0.00824984  0.01209221  0.01765183  0.02569619
               0.03733578  0.05417739  0.07854596  0.11380545
               0.16482331  0.23864234  0.34545298  0.50000000

Gradients computed in Reciprocal space

---------------------------------------------------------------------------------


     Starting wfcs are  208 randomized atomic wfcs

     total cpu time spent up to now is       75.5 secs

     Self-consistent Calculation

     iteration #  1     ecut=    70.00 Ry     beta= 0.70
     Davidson diagonalization with overlap
     ethr =  1.00E-02,  avg # of iterations =  5.0

     negative rho (up, down):  2.732E-04 1.327E-02

     total cpu time spent up to now is      212.3 secs

     total energy              =    -946.67291684 Ry
     Harris-Foulkes estimate   =    -949.73720586 Ry
     estimated scf accuracy    <      14.20185683 Ry

     total magnetization       =     6.00 Bohr mag/cell
     absolute magnetization    =     6.77 Bohr mag/cell

     iteration #  2     ecut=    70.00 Ry     beta= 0.70
     Davidson diagonalization with overlap
     ethr =  6.57E-03,  avg # of iterations =  4.0

     negative rho (up, down):  2.727E-03 1.783E-01

     total cpu time spent up to now is      338.7 secs

     total energy              =    -946.70791398 Ry
     Harris-Foulkes estimate   =    -957.28514550 Ry
     estimated scf accuracy    <      32.32780952 Ry

     total magnetization       =     4.00 Bohr mag/cell
     absolute magnetization    =     5.70 Bohr mag/cell

     iteration #  3     ecut=    70.00 Ry     beta= 0.70
     Davidson diagonalization with overlap
     ethr =  6.57E-03,  avg # of iterations =  4.0

     negative rho (up, down):  4.939E-02 4.841E-01

     total cpu time spent up to now is      459.7 secs

     total energy              =    -956.26447515 Ry
     Harris-Foulkes estimate   =    -955.72644408 Ry
     estimated scf accuracy    <     219.73927544 Ry

     total magnetization       =     2.00 Bohr mag/cell
     absolute magnetization    =    22.88 Bohr mag/cell

     iteration #  4     ecut=    70.00 Ry     beta= 0.70
     Davidson diagonalization with overlap
     ethr =  6.57E-03,  avg # of iterations =  1.5

     negative rho (up, down):  8.624E-02 5.425E-01

     total cpu time spent up to now is      556.7 secs

     total energy              =    -948.07158545 Ry
     Harris-Foulkes estimate   =    -956.33430259 Ry
     estimated scf accuracy    <     265.28617838 Ry

     total magnetization       =    -0.00 Bohr mag/cell
     absolute magnetization    =    23.77 Bohr mag/cell

     iteration #  5     ecut=    70.00 Ry     beta= 0.70
     Davidson diagonalization with overlap
     ethr =  6.57E-03,  avg # of iterations =  3.0

     negative rho (up, down):  5.917E-02 5.218E-01

     total cpu time spent up to now is      669.6 secs

     total energy              =    -949.75646367 Ry
     Harris-Foulkes estimate   =    -952.47902236 Ry
     estimated scf accuracy    <      29.73070429 Ry

     total magnetization       =     4.06 Bohr mag/cell
     absolute magnetization    =     9.94 Bohr mag/cell

     iteration #  6     ecut=    70.00 Ry     beta= 0.70
     Davidson diagonalization with overlap
     ethr =  6.57E-03,  avg # of iterations =  2.0

     negative rho (up, down):  4.997E-02 4.712E-01

     total cpu time spent up to now is      784.9 secs

     total energy              =    -954.09044707 Ry
     Harris-Foulkes estimate   =    -953.30519984 Ry
     estimated scf accuracy    <     105.37907677 Ry

     total magnetization       =     2.00 Bohr mag/cell
     absolute magnetization    =    17.23 Bohr mag/cell

     iteration #  7     ecut=    70.00 Ry     beta= 0.70
     Davidson diagonalization with overlap
     ethr =  6.57E-03,  avg # of iterations =  2.5

     negative rho (up, down):  5.852E-02 5.137E-01

     total cpu time spent up to now is      889.2 secs

     total energy              =    -948.07565866 Ry
     Harris-Foulkes estimate   =    -955.86456802 Ry
     estimated scf accuracy    <     261.75591229 Ry

     total magnetization       =     2.00 Bohr mag/cell
     absolute magnetization    =    26.41 Bohr mag/cell

     iteration #  8     ecut=    70.00 Ry     beta= 0.70
     Davidson diagonalization with overlap
     ethr =  6.57E-03,  avg # of iterations =  2.0

     negative rho (up, down):  6.940E-02 4.213E-01

     total cpu time spent up to now is      997.3 secs

     total energy              =    -951.45632023 Ry
     Harris-Foulkes estimate   =    -951.76607209 Ry
     estimated scf accuracy    <      14.06203406 Ry

     total magnetization       =    -0.00 Bohr mag/cell
     absolute magnetization    =     5.65 Bohr mag/cell

     iteration #  9     ecut=    70.00 Ry     beta= 0.70
     Davidson diagonalization with overlap
     ethr =  6.51E-03,  avg # of iterations =  1.5

     negative rho (up, down):  1.150E-02 3.571E-01

     total cpu time spent up to now is     1095.0 secs

     total energy              =    -951.72286604 Ry
     Harris-Foulkes estimate   =    -951.80094928 Ry
     estimated scf accuracy    <       1.98862514 Ry

     total magnetization       =    -0.00 Bohr mag/cell
     absolute magnetization    =     2.12 Bohr mag/cell

     iteration # 10     ecut=    70.00 Ry     beta= 0.70
     Davidson diagonalization with overlap
     ethr =  9.21E-04,  avg # of iterations =  4.5

     negative rho (up, down):  3.212E-02 1.648E-01

     total cpu time spent up to now is     1200.2 secs

     total energy              =    -951.77826372 Ry
     Harris-Foulkes estimate   =    -951.91567077 Ry
     estimated scf accuracy    <       3.09051096 Ry

     total magnetization       =     0.00 Bohr mag/cell
     absolute magnetization    =     1.04 Bohr mag/cell

     iteration # 11     ecut=    70.00 Ry     beta= 0.70
     Davidson diagonalization with overlap
     ethr =  9.21E-04,  avg # of iterations =  2.0

     negative rho (up, down):  2.488E-02 7.910E-02

     total cpu time spent up to now is     1300.7 secs

     total energy              =    -951.81107818 Ry
     Harris-Foulkes estimate   =    -951.92093164 Ry
     estimated scf accuracy    <       1.32836754 Ry

     total magnetization       =    -0.00 Bohr mag/cell
     absolute magnetization    =     0.73 Bohr mag/cell

     iteration # 12     ecut=    70.00 Ry     beta= 0.70
     Davidson diagonalization with overlap
     ethr =  6.15E-04,  avg # of iterations =  2.0

     negative rho (up, down):  2.890E-03 1.819E-01

     total cpu time spent up to now is     1401.4 secs

     total energy              =    -951.85985895 Ry
     Harris-Foulkes estimate   =    -951.89547312 Ry
     estimated scf accuracy    <       0.24519737 Ry

     total magnetization       =    -0.00 Bohr mag/cell
     absolute magnetization    =     0.68 Bohr mag/cell

     iteration # 13     ecut=    70.00 Ry     beta= 0.70
     Davidson diagonalization with overlap
     ethr =  1.14E-04,  avg # of iterations =  6.0

     negative rho (up, down):  2.679E-03 1.444E-01

     total cpu time spent up to now is     1508.1 secs

     total energy              =    -951.87326985 Ry
     Harris-Foulkes estimate   =    -951.89651354 Ry
     estimated scf accuracy    <       0.13263657 Ry

     total magnetization       =    -0.00 Bohr mag/cell
     absolute magnetization    =     0.56 Bohr mag/cell

     iteration # 14     ecut=    70.00 Ry     beta= 0.70
     Davidson diagonalization with overlap
     ethr =  6.14E-05,  avg # of iterations =  5.0

     negative rho (up, down):  2.660E-03 4.833E-02

     total cpu time spent up to now is     1609.8 secs

     total energy              =    -951.88552333 Ry
     Harris-Foulkes estimate   =    -951.88957962 Ry
     estimated scf accuracy    <       0.04318143 Ry

     total magnetization       =    -0.00 Bohr mag/cell
     absolute magnetization    =     0.35 Bohr mag/cell

     iteration # 15     ecut=    70.00 Ry     beta= 0.70
     Davidson diagonalization with overlap
     ethr =  2.00E-05,  avg # of iterations =  6.0

     negative rho (up, down):  1.349E-03 1.733E-01

     total cpu time spent up to now is     1712.1 secs

     total energy              =    -951.88836804 Ry
     Harris-Foulkes estimate   =    -951.88890539 Ry
     estimated scf accuracy    <       0.03170270 Ry

     total magnetization       =    -0.00 Bohr mag/cell
     absolute magnetization    =     0.33 Bohr mag/cell

     iteration # 16     ecut=    70.00 Ry     beta= 0.70
     Davidson diagonalization with overlap
     ethr =  1.47E-05,  avg # of iterations =  4.0

     negative rho (up, down):  1.482E-03 2.370E-01

     total cpu time spent up to now is     1813.2 secs

     total energy              =    -951.88943935 Ry
     Harris-Foulkes estimate   =    -951.88989103 Ry
     estimated scf accuracy    <       0.08850063 Ry

     total magnetization       =    -0.00 Bohr mag/cell
     absolute magnetization    =     0.53 Bohr mag/cell

     iteration # 17     ecut=    70.00 Ry     beta= 0.70
     Davidson diagonalization with overlap
     ethr =  1.47E-05,  avg # of iterations =  2.0

     negative rho (up, down):  1.429E-03 2.527E-01

     total cpu time spent up to now is     1910.3 secs

     total energy              =    -951.88872973 Ry
     Harris-Foulkes estimate   =    -951.88958480 Ry
     estimated scf accuracy    <       0.11089345 Ry

     total magnetization       =     0.00 Bohr mag/cell
     absolute magnetization    =     0.58 Bohr mag/cell

     iteration # 18     ecut=    70.00 Ry     beta= 0.70
     Davidson diagonalization with overlap
     ethr =  1.47E-05,  avg # of iterations =  2.0

     negative rho (up, down):  1.108E-03 2.786E-01

     total cpu time spent up to now is     2009.0 secs

     total energy              =    -951.88421386 Ry
     Harris-Foulkes estimate   =    -951.88967267 Ry
     estimated scf accuracy    <       0.17193121 Ry

     total magnetization       =     0.00 Bohr mag/cell
     absolute magnetization    =     0.72 Bohr mag/cell

     iteration # 19     ecut=    70.00 Ry     beta= 0.70
     Davidson diagonalization with overlap
     ethr =  1.47E-05,  avg # of iterations =  2.0

     negative rho (up, down):  2.048E-03 1.801E-01

     total cpu time spent up to now is     2110.0 secs

     total energy              =    -951.88747224 Ry
     Harris-Foulkes estimate   =    -951.88657555 Ry
     estimated scf accuracy    <       0.01077071 Ry

     total magnetization       =     0.10 Bohr mag/cell
     absolute magnetization    =     0.22 Bohr mag/cell

     iteration # 20     ecut=    70.00 Ry     beta= 0.70
     Davidson diagonalization with overlap
     ethr =  4.99E-06,  avg # of iterations =  5.0

     negative rho (up, down):  1.296E-03 7.860E-02

     total cpu time spent up to now is     2213.8 secs

     total energy              =    -951.88854907 Ry
     Harris-Foulkes estimate   =    -951.88814906 Ry
     estimated scf accuracy    <       0.00066780 Ry

     total magnetization       =     0.00 Bohr mag/cell
     absolute magnetization    =     0.09 Bohr mag/cell

     iteration # 21     ecut=    70.00 Ry     beta= 0.70
     Davidson diagonalization with overlap
     ethr =  3.09E-07,  avg # of iterations =  6.5

     negative rho (up, down):  1.161E-03 7.208E-03

     total cpu time spent up to now is     2330.0 secs

     total energy              =    -951.88883147 Ry
     Harris-Foulkes estimate   =    -951.88872980 Ry
     estimated scf accuracy    <       0.00061333 Ry

     total magnetization       =    -0.00 Bohr mag/cell
     absolute magnetization    =     0.09 Bohr mag/cell

     iteration # 22     ecut=    70.00 Ry     beta= 0.70
     Davidson diagonalization with overlap
     ethr =  2.84E-07,  avg # of iterations =  3.0

     negative rho (up, down):  1.259E-03 3.152E-02

     total cpu time spent up to now is     2437.4 secs

     total energy              =    -951.88875613 Ry
     Harris-Foulkes estimate   =    -951.88890495 Ry
     estimated scf accuracy    <       0.00179001 Ry

     total magnetization       =     0.00 Bohr mag/cell
     absolute magnetization    =     0.09 Bohr mag/cell

     iteration # 23     ecut=    70.00 Ry     beta= 0.70
     Davidson diagonalization with overlap
     ethr =  2.84E-07,  avg # of iterations =  2.0

     negative rho (up, down):  1.153E-03 3.689E-03

     total cpu time spent up to now is     2539.5 secs

     total energy              =    -951.88886742 Ry
     Harris-Foulkes estimate   =    -951.88882289 Ry
     estimated scf accuracy    <       0.00007611 Ry

     total magnetization       =    -0.00 Bohr mag/cell
     absolute magnetization    =     0.05 Bohr mag/cell

     iteration # 24     ecut=    70.00 Ry     beta= 0.70
     Davidson diagonalization with overlap
     ethr =  3.52E-08,  avg # of iterations =  3.0

     negative rho (up, down):  1.135E-03 1.318E-02

     total cpu time spent up to now is     2649.3 secs

     total energy              =    -951.88887428 Ry
     Harris-Foulkes estimate   =    -951.88889193 Ry
     estimated scf accuracy    <       0.00015254 Ry

     total magnetization       =     0.00 Bohr mag/cell
     absolute magnetization    =     0.05 Bohr mag/cell

     iteration # 25     ecut=    70.00 Ry     beta= 0.70
     Davidson diagonalization with overlap
     ethr =  3.52E-08,  avg # of iterations =  3.0

     negative rho (up, down):  1.137E-03 5.933E-03

     total cpu time spent up to now is     2752.1 secs

     total energy              =    -951.88888802 Ry
     Harris-Foulkes estimate   =    -951.88888821 Ry
     estimated scf accuracy    <       0.00001975 Ry

     total magnetization       =    -0.00 Bohr mag/cell
     absolute magnetization    =     0.03 Bohr mag/cell

     iteration # 26     ecut=    70.00 Ry     beta= 0.70
     Davidson diagonalization with overlap
     ethr =  9.14E-09,  avg # of iterations =  2.5

     negative rho (up, down):  1.137E-03 7.552E-03

     total cpu time spent up to now is     2855.9 secs

     total energy              =    -951.88888872 Ry
     Harris-Foulkes estimate   =    -951.88889137 Ry
     estimated scf accuracy    <       0.00002789 Ry

     total magnetization       =     0.00 Bohr mag/cell
     absolute magnetization    =     0.02 Bohr mag/cell

     iteration # 27     ecut=    70.00 Ry     beta= 0.70
     Davidson diagonalization with overlap
     ethr =  9.14E-09,  avg # of iterations =  2.0

     negative rho (up, down):  1.135E-03 1.193E-02

     total cpu time spent up to now is     2958.5 secs

     total energy              =    -951.88888988 Ry
     Harris-Foulkes estimate   =    -951.88889194 Ry
     estimated scf accuracy    <       0.00007614 Ry

     total magnetization       =     0.00 Bohr mag/cell
     absolute magnetization    =     0.03 Bohr mag/cell

     iteration # 28     ecut=    70.00 Ry     beta= 0.70
     Davidson diagonalization with overlap
     ethr =  9.14E-09,  avg # of iterations =  2.0

     negative rho (up, down):  1.135E-03 1.214E-02

     total cpu time spent up to now is     3057.1 secs

     total energy              =    -951.88889116 Ry
     Harris-Foulkes estimate   =    -951.88889054 Ry
     estimated scf accuracy    <       0.00004003 Ry

     total magnetization       =     0.00 Bohr mag/cell
     absolute magnetization    =     0.02 Bohr mag/cell

     iteration # 29     ecut=    70.00 Ry     beta= 0.70
     Davidson diagonalization with overlap
     ethr =  9.14E-09,  avg # of iterations =  1.5

     negative rho (up, down):  1.141E-03 1.873E-02

     total cpu time spent up to now is     3155.5 secs

     total energy              =    -951.88889254 Ry
     Harris-Foulkes estimate   =    -951.88889219 Ry
     estimated scf accuracy    <       0.00013734 Ry

     total magnetization       =     0.00 Bohr mag/cell
     absolute magnetization    =     0.02 Bohr mag/cell

     iteration # 30     ecut=    70.00 Ry     beta= 0.70
     Davidson diagonalization with overlap
     ethr =  9.14E-09,  avg # of iterations =  2.5

     negative rho (up, down):  1.149E-03 4.306E-02

     total cpu time spent up to now is     3259.1 secs

     total energy              =    -951.88885856 Ry
     Harris-Foulkes estimate   =    -951.88889712 Ry
     estimated scf accuracy    <       0.00068087 Ry

     total magnetization       =    -0.00 Bohr mag/cell
     absolute magnetization    =     0.05 Bohr mag/cell

     iteration # 31     ecut=    70.00 Ry     beta= 0.70
     Davidson diagonalization with overlap
     ethr =  9.14E-09,  avg # of iterations =  2.5

     negative rho (up, down):  1.139E-03 2.643E-02

     total cpu time spent up to now is     3363.4 secs

     total energy              =    -951.88887915 Ry
     Harris-Foulkes estimate   =    -951.88886335 Ry
     estimated scf accuracy    <       0.00008290 Ry

     total magnetization       =    -0.00 Bohr mag/cell
     absolute magnetization    =     0.02 Bohr mag/cell

     iteration # 32     ecut=    70.00 Ry     beta= 0.70
     Davidson diagonalization with overlap
     ethr =  9.14E-09,  avg # of iterations =  2.0

     negative rho (up, down):  1.135E-03 3.109E-05

     Magnetic moment per site:
     atom:    1    charge:    0.2112    magn:    0.0000    constr:    0.0000
     atom:    2    charge:    0.2111    magn:   -0.0000    constr:    0.0000
     atom:    3    charge:    1.7155    magn:    0.0001    constr:    0.0000
     atom:    4    charge:    1.7152    magn:   -0.0001    constr:    0.0000
     atom:    5    charge:    1.7168    magn:    0.0001    constr:    0.0000
     atom:    6    charge:    1.7146    magn:   -0.0001    constr:    0.0000
     atom:    7    charge:    1.7168    magn:    0.0001    constr:    0.0000
     atom:    8    charge:    1.7152    magn:   -0.0001    constr:    0.0000
     atom:    9    charge:    1.7155    magn:    0.0001    constr:    0.0000
     atom:   10    charge:    1.7176    magn:   -0.0001    constr:    0.0000
     atom:   11    charge:    1.7156    magn:    0.0001    constr:    0.0000
     atom:   12    charge:    1.7176    magn:   -0.0001    constr:    0.0000
     atom:   13    charge:    1.7156    magn:    0.0001    constr:    0.0000
     atom:   14    charge:    1.7175    magn:   -0.0001    constr:    0.0000
     atom:   15    charge:    1.7117    magn:    0.0001    constr:    0.0000
     atom:   16    charge:    1.7114    magn:   -0.0001    constr:    0.0000
     atom:   17    charge:    1.7206    magn:    0.0001    constr:    0.0000
     atom:   18    charge:    1.7114    magn:   -0.0001    constr:    0.0000
     atom:   19    charge:    1.7118    magn:    0.0001    constr:    0.0000
     atom:   20    charge:    1.7175    magn:   -0.0001    constr:    0.0000
     atom:   21    charge:    1.7156    magn:    0.0001    constr:    0.0000
     atom:   22    charge:    1.7176    magn:   -0.0001    constr:    0.0000
     atom:   23    charge:    1.7155    magn:    0.0001    constr:    0.0000
     atom:   24    charge:    1.7152    magn:   -0.0001    constr:    0.0000
     atom:   25    charge:    1.7117    magn:    0.0001    constr:    0.0000
     atom:   26    charge:    1.7114    magn:   -0.0001    constr:    0.0000
     atom:   27    charge:    1.8183    magn:    0.0000    constr:    0.0000
     atom:   28    charge:   13.4053    magn:    0.0001    constr:    0.0000
     atom:   29    charge:    1.8182    magn:    0.0000    constr:    0.0000
     atom:   30    charge:    1.7114    magn:   -0.0001    constr:    0.0000
     atom:   31    charge:    1.7118    magn:    0.0001    constr:    0.0000
     atom:   32    charge:    1.7152    magn:   -0.0001    constr:    0.0000
     atom:   33    charge:    1.7168    magn:    0.0001    constr:    0.0000
     atom:   34    charge:    1.7154    magn:   -0.0001    constr:    0.0000
     atom:   35    charge:    1.7168    magn:    0.0001    constr:    0.0000
     atom:   36    charge:    1.7145    magn:   -0.0001    constr:    0.0000
     atom:   37    charge:    1.7206    magn:    0.0001    constr:    0.0000
     atom:   38    charge:    1.7114    magn:   -0.0001    constr:    0.0000
     atom:   39    charge:    1.8183    magn:    0.0000    constr:    0.0000
     atom:   40    charge:    1.7114    magn:   -0.0001    constr:    0.0000
     atom:   41    charge:    1.7206    magn:    0.0001    constr:    0.0000
     atom:   42    charge:    1.7146    magn:   -0.0001    constr:    0.0000
     atom:   43    charge:    1.7168    magn:    0.0001    constr:    0.0000
     atom:   44    charge:    1.7154    magn:   -0.0001    constr:    0.0000
     atom:   45    charge:    1.7212    magn:    0.0000    constr:    0.0000
     atom:   46    charge:    1.7154    magn:   -0.0001    constr:    0.0000
     atom:   47    charge:    1.7168    magn:    0.0001    constr:    0.0000
     atom:   48    charge:    1.7152    magn:   -0.0001    constr:    0.0000
     atom:   49    charge:    1.7117    magn:    0.0001    constr:    0.0000
     atom:   50    charge:    1.7175    magn:   -0.0001    constr:    0.0000
     atom:   51    charge:    1.7117    magn:    0.0001    constr:    0.0000
     atom:   52    charge:    1.7152    magn:   -0.0001    constr:    0.0000

     total cpu time spent up to now is     3462.9 secs

     End of self-consistent calculation

 ------ SPIN UP ------------


          k = 0.0000 0.0000 0.0000 ( 87777 PWs)   bands (ev):

  -107.9184 -69.0872 -69.0867 -67.0022 -19.8267 -19.0077 -19.0068 -18.8887
   -18.8884 -18.8037 -18.7366 -17.1635 -17.1629 -17.1282 -17.0806 -17.0788
   -16.7535 -16.3126 -16.3120 -16.1663 -16.1655 -16.1525 -15.6702 -14.3109
   -14.3104 -14.1501 -14.0165 -14.0161 -13.5147 -13.1288 -13.1284 -13.0770
   -12.9014 -12.9007 -12.5005 -12.0759 -12.0757 -11.7126 -11.5684 -11.5682
   -10.9343 -10.4319 -10.4318  -9.5773  -9.3661  -9.3654  -9.2264  -9.2116
    -9.2114  -9.1968  -8.9528  -8.9527  -8.5933  -8.5928  -8.4571  -7.9521
    -7.9020  -7.8579  -7.8463  -7.6643  -7.5420  -7.5413  -7.4485  -7.4482
    -6.8462  -6.8396  -6.8213  -6.7938  -6.7426  -6.6197  -6.6189  -6.5554
    -6.5503  -6.5502  -6.5169  -6.4536  -6.4246  -6.4055  -6.3530  -6.2892
    -6.2891  -5.5468  -5.5466  -5.0306  -4.9496  -4.8427  -4.8425  -4.7576
    -4.7158  -4.7148  -4.4253  -4.3984  -4.3974  -3.8365  -3.8357  -3.7643
    -3.7589  -3.7589  -3.7212  -3.4204  -3.4181  -3.3497  -1.8921  -1.8063
    -1.8059  -1.5919  -1.5893  -1.1594   0.1060   0.1072   0.9036   0.9607
     0.9634   1.2122   1.2125   1.5502   2.5178   2.8007   2.8033   2.8514
     3.0364   3.0400   3.4573   3.6207   3.6468   3.7489   3.7533   3.7773
     3.9085   4.2633

     occupation numbers 
     1.0000   1.0000   1.0000   1.0000   1.0000   1.0000   1.0000   1.0000
     1.0000   1.0000   1.0000   1.0000   1.0000   1.0000   1.0000   1.0000
     1.0000   1.0000   1.0000   1.0000   1.0000   1.0000   1.0000   1.0000
     1.0000   1.0000   1.0000   1.0000   1.0000   1.0000   1.0000   1.0000
     1.0000   1.0000   1.0000   1.0000   1.0000   1.0000   1.0000   1.0000
     1.0000   1.0000   1.0000   1.0000   1.0000   1.0000   1.0000   1.0000
     1.0000   1.0000   1.0000   1.0000   1.0000   1.0000   1.0000   1.0000
     1.0000   1.0000   1.0000   1.0000   1.0000   1.0000   1.0000   1.0000
     1.0000   1.0000   1.0000   1.0000   1.0000   1.0000   1.0000   1.0000
     1.0000   1.0000   1.0000   1.0000   1.0000   1.0000   1.0000   1.0000
     1.0000   1.0000   1.0000   1.0000   1.0000   1.0000   1.0000   1.0000
     1.0000   1.0000   1.0000   1.0000   1.0000   1.0000   1.0000   1.0000
     1.0000   1.0000   1.0000   1.0000   1.0000   1.0000   1.0000   1.0000
     1.0000   1.0000   1.0000   1.0000   0.0000   0.0000   0.0000   0.0000
     0.0000   0.0000   0.0000   0.0000   0.0000   0.0000   0.0000   0.0000
     0.0000   0.0000   0.0000   0.0000   0.0000   0.0000   0.0000   0.0000
     0.0000   0.0000

 ------ SPIN DOWN ----------


          k = 0.0000 0.0000 0.0000 ( 87777 PWs)   bands (ev):

  -107.9180 -69.0869 -69.0863 -67.0019 -19.8267 -19.0077 -19.0068 -18.8888
   -18.8884 -18.8037 -18.7366 -17.1635 -17.1629 -17.1282 -17.0806 -17.0788
   -16.7535 -16.3126 -16.3120 -16.1664 -16.1656 -16.1525 -15.6701 -14.3109
   -14.3104 -14.1502 -14.0165 -14.0161 -13.5145 -13.1289 -13.1285 -13.0769
   -12.9014 -12.9006 -12.5006 -12.0759 -12.0757 -11.7126 -11.5684 -11.5683
   -10.9343 -10.4319 -10.4318  -9.5773  -9.3661  -9.3654  -9.2265  -9.2117
    -9.2115  -9.1968  -8.9528  -8.9527  -8.5933  -8.5928  -8.4570  -7.9522
    -7.9020  -7.8578  -7.8462  -7.6644  -7.5420  -7.5414  -7.4484  -7.4482
    -6.8462  -6.8396  -6.8214  -6.7939  -6.7428  -6.6197  -6.6189  -6.5554
    -6.5503  -6.5502  -6.5169  -6.4536  -6.4245  -6.4054  -6.3530  -6.2892
    -6.2891  -5.5468  -5.5466  -5.0306  -4.9496  -4.8427  -4.8425  -4.7576
    -4.7158  -4.7149  -4.4254  -4.3985  -4.3974  -3.8365  -3.8358  -3.7645
    -3.7589  -3.7589  -3.7212  -3.4205  -3.4182  -3.3496  -1.8923  -1.8062
    -1.8058  -1.5923  -1.5898  -1.1591   0.1060   0.1072   0.9036   0.9608
     0.9634   1.2121   1.2125   1.5499   2.5192   2.8006   2.8033   2.8512
     3.0363   3.0399   3.4573   3.6222   3.6490   3.7501   3.7545   3.7780
     3.9109   4.2640

     occupation numbers 
     1.0000   1.0000   1.0000   1.0000   1.0000   1.0000   1.0000   1.0000
     1.0000   1.0000   1.0000   1.0000   1.0000   1.0000   1.0000   1.0000
     1.0000   1.0000   1.0000   1.0000   1.0000   1.0000   1.0000   1.0000
     1.0000   1.0000   1.0000   1.0000   1.0000   1.0000   1.0000   1.0000
     1.0000   1.0000   1.0000   1.0000   1.0000   1.0000   1.0000   1.0000
     1.0000   1.0000   1.0000   1.0000   1.0000   1.0000   1.0000   1.0000
     1.0000   1.0000   1.0000   1.0000   1.0000   1.0000   1.0000   1.0000
     1.0000   1.0000   1.0000   1.0000   1.0000   1.0000   1.0000   1.0000
     1.0000   1.0000   1.0000   1.0000   1.0000   1.0000   1.0000   1.0000
     1.0000   1.0000   1.0000   1.0000   1.0000   1.0000   1.0000   1.0000
     1.0000   1.0000   1.0000   1.0000   1.0000   1.0000   1.0000   1.0000
     1.0000   1.0000   1.0000   1.0000   1.0000   1.0000   1.0000   1.0000
     1.0000   1.0000   1.0000   1.0000   1.0000   1.0000   1.0000   1.0000
     1.0000   1.0000   1.0000   1.0000   0.0000   0.0000   0.0000   0.0000
     0.0000   0.0000   0.0000   0.0000   0.0000   0.0000   0.0000   0.0000
     0.0000   0.0000   0.0000   0.0000   0.0000   0.0000   0.0000   0.0000
     0.0000   0.0000

     the Fermi energy is    -0.9698 ev

!    total energy              =    -951.88889193 Ry
     Harris-Foulkes estimate   =    -951.88888142 Ry
     estimated scf accuracy    <       0.00000037 Ry

     The total energy is the sum of the following terms:

     one-electron contribution =   -2976.53799352 Ry
     hartree contribution      =    1530.91568910 Ry
     xc contribution           =    -265.72148930 Ry
     ewald contribution        =     759.45490178 Ry
     smearing contrib. (-TS)   =       0.00000000 Ry

     total magnetization       =     0.00 Bohr mag/cell
     absolute magnetization    =     0.01 Bohr mag/cell

     convergence has been achieved in  32 iterations

     Writing output data file distance-2.8.save/

     init_run     :     73.12s CPU     74.39s WALL (       1 calls)
     electrons    :   3327.37s CPU   3387.51s WALL (       1 calls)

     Called by init_run:
     wfcinit      :     43.20s CPU     43.41s WALL (       1 calls)
     wfcinit:atom :      0.06s CPU      0.08s WALL (       2 calls)
     wfcinit:wfcr :     42.77s CPU     42.92s WALL (       2 calls)
     potinit      :     12.40s CPU     12.81s WALL (       1 calls)
     hinit0       :      8.50s CPU      8.54s WALL (       1 calls)

     Called by electrons:
     c_bands      :   2115.78s CPU   2126.17s WALL (      32 calls)
     sum_band     :    706.44s CPU    726.92s WALL (      32 calls)
     v_of_rho     :    244.50s CPU    256.64s WALL (      33 calls)
     v_h          :      2.64s CPU      2.69s WALL (      33 calls)
     v_xc         :    241.86s CPU    253.96s WALL (      33 calls)
     newd         :    252.68s CPU    270.36s WALL (      33 calls)
     mix_rho      :     15.22s CPU     15.44s WALL (      32 calls)

     Called by c_bands:
     init_us_2    :      6.09s CPU      6.13s WALL (     130 calls)
     cegterg      :   2100.62s CPU   2110.94s WALL (      64 calls)

     Called by sum_band:
     sum_band:bec :      0.05s CPU      0.05s WALL (      64 calls)
     addusdens    :    431.67s CPU    450.48s WALL (      32 calls)

     Called by *egterg:
     h_psi        :   1100.75s CPU   1108.23s WALL (     263 calls)
     s_psi        :    370.89s CPU    371.06s WALL (     263 calls)
     g_psi        :      1.16s CPU      1.16s WALL (     197 calls)
     cdiaghg      :     17.97s CPU     17.97s WALL (     261 calls)
     cegterg:over :    258.71s CPU    258.81s WALL (     197 calls)
     cegterg:upda :    158.53s CPU    159.20s WALL (     197 calls)
     cegterg:last :    115.88s CPU    115.91s WALL (      64 calls)

     Called by h_psi:
     h_psi:pot    :   1099.51s CPU   1105.56s WALL (     263 calls)
     h_psi:calbec :    368.53s CPU    368.66s WALL (     263 calls)
     vloc_psi     :    360.84s CPU    366.66s WALL (     263 calls)
     add_vuspsi   :    370.14s CPU    370.24s WALL (     263 calls)

     General routines
     calbec       :    528.52s CPU    528.70s WALL (     327 calls)
     fft          :    140.19s CPU    144.98s WALL (    2469 calls)
     ffts         :      2.50s CPU      2.56s WALL (     130 calls)
     fftw         :    384.60s CPU    390.99s WALL (   46646 calls)
     interpolate  :      5.88s CPU      6.01s WALL (      66 calls)

     Parallel routines
     fft_scatt_xy :     93.90s CPU     95.00s WALL (   49245 calls)
     fft_scatt_yz :    177.62s CPU    185.78s WALL (   49245 calls)

     PWSCF        :  56m41.81s CPU  57m43.59s WALL


   This run was terminated on:   2:17:34  30Dec2022            

=------------------------------------------------------------------------------=
   JOB DONE.
=------------------------------------------------------------------------------=
