
     Program PWSCF v.6.4.1 starts on 24Dec2022 at  2:14:40 

     This program is part of the open-source Quantum ESPRESSO suite
     for quantum simulation of materials; please cite
         "P. Giannozzi et al., J. Phys.:Condens. Matter 21 395502 (2009);
         "P. Giannozzi et al., J. Phys.:Condens. Matter 29 465901 (2017);
          URL http://www.quantum-espresso.org", 
     in publications or presentations arising from this work. More details at
     http://www.quantum-espresso.org/quote

     Parallel version (MPI), running on     6 processors

     MPI processes distributed on     1 nodes
     R & G space division:  proc/nbgrp/npool/nimage =       6
     Reading input from distance-3.5.in

     Current dimensions of program PWSCF are:
     Max number of different atomic species (ntypx) = 10
     Max number of k-points (npk) =  40000
     Max angular momentum in pseudopotentials (lmaxx) =  3

     IMPORTANT: XC functional enforced from input :
     Exchange-correlation      = RVV10 ( 1  4 13  4 3 0)
     Any further DFT definition will be discarded
     Please, verify this is what you really want

               file H.pbe-rrkjus.UPF: wavefunction(s)  1S renormalized

     Subspace diagonalization in iterative solution of the eigenvalue problem:
     a serial algorithm will be used


     Parallelization info
     --------------------
     sticks:   dense  smooth     PW     G-vecs:    dense   smooth      PW
     Min        3051    1746    432               270999   117096   14629
     Max        3053    1747    437               271001   117099   14630
     Sum       18313   10477   2611              1626001   702581   87777



     bravais-lattice index     =            4
     lattice parameter (alat)  =      23.2937  a.u.
     unit-cell volume          =    8879.8548 (a.u.)^3
     number of atoms/cell      =           52
     number of atomic types    =            3
     number of electrons       =       216.00
     number of Kohn-Sham states=          130
     kinetic-energy cutoff     =      70.0000  Ry
     charge density cutoff     =     490.0000  Ry
     convergence threshold     =      1.0E-06
     mixing beta               =       0.7000
     number of iterations used =            8  plain     mixing
     Exchange-correlation      = RVV10 ( 1  4 13  4 3 0)

     celldm(1)=  23.293684  celldm(2)=   0.000000  celldm(3)=   0.811261
     celldm(4)=   0.000000  celldm(5)=   0.000000  celldm(6)=   0.000000

     crystal axes: (cart. coord. in units of alat)
               a(1) = (   1.000000   0.000000   0.000000 )  
               a(2) = (  -0.500000   0.866025   0.000000 )  
               a(3) = (   0.000000   0.000000   0.811261 )  

     reciprocal axes: (cart. coord. in units 2 pi/alat)
               b(1) = (  1.000000  0.577350 -0.000000 )  
               b(2) = (  0.000000  1.154701  0.000000 )  
               b(3) = (  0.000000 -0.000000  1.232649 )  


     PseudoPot. # 1 for H  read from file:
     /home/cristian/Escritorio/Proyecto_Grafeno/pseudopotenciales/H.pbe-rrkjus.UPF
     MD5 check sum: 7cc9d459525c9a0585f487a71c3c9563
     Pseudo is Ultrasoft, Zval =  1.0
     Generated by new atomic code, or converted to UPF format
     Using radial grid of 1061 points,  2 beta functions with: 
                l(1) =   0
                l(2) =   0
     Q(r) pseudized with 0 coefficients 


     PseudoPot. # 2 for C  read from file:
     /home/cristian/Escritorio/Proyecto_Grafeno/pseudopotenciales/C.pbe-n-rrkjus_psl.1.0.0.UPF
     MD5 check sum: 1fdd950c42eb37d8afe3dd2f8d12311e
     Pseudo is Ultrasoft + core correction, Zval =  4.0
     Generated using "atomic" code by A. Dal Corso v.6.3MaX
     Using radial grid of 1073 points,  4 beta functions with: 
                l(1) =   0
                l(2) =   0
                l(3) =   1
                l(4) =   1
     Q(r) pseudized with 0 coefficients 


     PseudoPot. # 3 for Ni read from file:
     /home/cristian/Escritorio/Proyecto_Grafeno/pseudopotenciales/Ni.pbe-spn-rrkjus_psl.1.0.0.UPF
     MD5 check sum: 8b3fc9aac6dafe35f580d41bb18c3945
     Pseudo is Ultrasoft + core correction, Zval = 18.0
     Generated using "atomic" code by A. Dal Corso v.6.3
     Using radial grid of 1195 points,  6 beta functions with: 
                l(1) =   0
                l(2) =   0
                l(3) =   1
                l(4) =   1
                l(5) =   2
                l(6) =   2
     Q(r) pseudized with 0 coefficients 


     vdW kernel table read from file rVV10_kernel_table
     MD5 check sum: b8e2538accc0c0b3206b45ba4daaba6c

     atomic species   valence    mass     pseudopotential
        H              1.00     1.00794     H ( 1.00)
        C              4.00    12.01070     C ( 1.00)
        Ni            18.00    58.69340     Ni( 1.00)

     Starting magnetic structure 
     atomic species   magnetization
        H            0.500
        C            0.300
        Ni           0.800

      2 Sym. Ops. (no inversion) found


                                    s                        frac. trans.

      isym =  1     identity                                     

 cryst.   s( 1) = (     1          0          0      )
                  (     0          1          0      )
                  (     0          0          1      )

 cart.    s( 1) = (  1.0000000  0.0000000  0.0000000 )
                  (  0.0000000  1.0000000  0.0000000 )
                  (  0.0000000  0.0000000  1.0000000 )


      isym =  2     inv. 180 deg rotation - cryst. axis [1,1,0]  

 cryst.   s( 2) = (     0         -1          0      )
                  (    -1          0          0      )
                  (     0          0          1      )

 cart.    s( 2) = (  0.5000000 -0.8660254  0.0000000 )
                  ( -0.8660254 -0.5000000  0.0000000 )
                  (  0.0000000  0.0000000  1.0000000 )


     point group C_s (m)    
     there are  2 classes
     the character table:

       E     s    
A'     1.00  1.00
A''    1.00 -1.00

     the symmetry operations in each class and the name of the first element:

     E        1
          identity                                               
     s        2
          inv. 180 deg rotation - cryst. axis [1,1,0]            

   Cartesian axes

     site n.     atom                  positions (alat units)
         1           H   tau(   1) = (   0.3000000   0.4041452   0.2839414  )
         2           H   tau(   2) = (   0.3000000   0.4041452   0.3449541  )
         3           C   tau(   3) = (   0.0000000   0.0000000   0.0000000  )
         4           C   tau(   4) = (   0.0000000   0.1154701   0.0000000  )
         5           C   tau(   5) = (  -0.1000000   0.1732051   0.0000000  )
         6           C   tau(   6) = (  -0.1000000   0.2886751   0.0000000  )
         7           C   tau(   7) = (  -0.2000000   0.3464102   0.0000000  )
         8           C   tau(   8) = (  -0.2000000   0.4618802   0.0000000  )
         9           C   tau(   9) = (  -0.3000000   0.5196152   0.0000000  )
        10           C   tau(  10) = (  -0.3000000   0.6350853   0.0000000  )
        11           C   tau(  11) = (  -0.4000000   0.6928203   0.0000000  )
        12           C   tau(  12) = (  -0.4000000   0.8082904   0.0000000  )
        13           C   tau(  13) = (   0.2000000   0.0000000   0.0000000  )
        14           C   tau(  14) = (   0.2000000   0.1154701   0.0000000  )
        15           C   tau(  15) = (   0.1000000   0.1732051   0.0000000  )
        16           C   tau(  16) = (   0.1000000   0.2886751   0.0000000  )
        17           C   tau(  17) = (   0.0000000   0.3464102   0.0000000  )
        18           C   tau(  18) = (   0.0000000   0.4618802   0.0000000  )
        19           C   tau(  19) = (  -0.1000000   0.5196152   0.0000000  )
        20           C   tau(  20) = (  -0.1000000   0.6350853   0.0000000  )
        21           C   tau(  21) = (  -0.2000000   0.6928203   0.0000000  )
        22           C   tau(  22) = (  -0.2000000   0.8082904   0.0000000  )
        23           C   tau(  23) = (   0.4000000   0.0000000   0.0000000  )
        24           C   tau(  24) = (   0.4000000   0.1154701   0.0000000  )
        25           C   tau(  25) = (   0.3000000   0.1732051   0.0000000  )
        26           C   tau(  26) = (   0.3000000   0.2886751   0.0000000  )
        27           C   tau(  27) = (   0.2000000   0.3464102   0.0000000  )
        28           Ni  tau(  28) = (   0.2000000   0.4618802   0.0000000  )
        29           C   tau(  29) = (   0.1000000   0.5196152   0.0000000  )
        30           C   tau(  30) = (   0.1000000   0.6350853   0.0000000  )
        31           C   tau(  31) = (   0.0000000   0.6928203   0.0000000  )
        32           C   tau(  32) = (   0.0000000   0.8082904   0.0000000  )
        33           C   tau(  33) = (   0.6000000   0.0000000   0.0000000  )
        34           C   tau(  34) = (   0.6000000   0.1154701   0.0000000  )
        35           C   tau(  35) = (   0.5000000   0.1732051   0.0000000  )
        36           C   tau(  36) = (   0.5000000   0.2886751   0.0000000  )
        37           C   tau(  37) = (   0.4000000   0.3464102   0.0000000  )
        38           C   tau(  38) = (   0.4000000   0.4618802   0.0000000  )
        39           C   tau(  39) = (   0.3000000   0.5196152   0.0000000  )
        40           C   tau(  40) = (   0.3000000   0.6350853   0.0000000  )
        41           C   tau(  41) = (   0.2000000   0.6928203   0.0000000  )
        42           C   tau(  42) = (   0.2000000   0.8082904   0.0000000  )
        43           C   tau(  43) = (   0.8000000   0.0000000   0.0000000  )
        44           C   tau(  44) = (   0.8000000   0.1154701   0.0000000  )
        45           C   tau(  45) = (   0.7000000   0.1732051   0.0000000  )
        46           C   tau(  46) = (   0.7000000   0.2886751   0.0000000  )
        47           C   tau(  47) = (   0.6000000   0.3464102   0.0000000  )
        48           C   tau(  48) = (   0.6000000   0.4618802   0.0000000  )
        49           C   tau(  49) = (   0.5000000   0.5196152   0.0000000  )
        50           C   tau(  50) = (   0.5000000   0.6350853   0.0000000  )
        51           C   tau(  51) = (   0.4000000   0.6928203   0.0000000  )
        52           C   tau(  52) = (   0.4000000   0.8082904   0.0000000  )

   Crystallographic axes

     site n.     atom                  positions (cryst. coord.)
         1           H   tau(   1) = (  0.5333333  0.4666667  0.3500000  )
         2           H   tau(   2) = (  0.5333333  0.4666667  0.4252072  )
         3           C   tau(   3) = (  0.0000000  0.0000000  0.0000000  )
         4           C   tau(   4) = (  0.0666667  0.1333333  0.0000000  )
         5           C   tau(   5) = (  0.0000000  0.2000000  0.0000000  )
         6           C   tau(   6) = (  0.0666667  0.3333333  0.0000000  )
         7           C   tau(   7) = (  0.0000000  0.4000000  0.0000000  )
         8           C   tau(   8) = (  0.0666667  0.5333333  0.0000000  )
         9           C   tau(   9) = (  0.0000000  0.6000000  0.0000000  )
        10           C   tau(  10) = (  0.0666667  0.7333333  0.0000000  )
        11           C   tau(  11) = (  0.0000000  0.8000000  0.0000000  )
        12           C   tau(  12) = (  0.0666667  0.9333333  0.0000000  )
        13           C   tau(  13) = (  0.2000000  0.0000000  0.0000000  )
        14           C   tau(  14) = (  0.2666667  0.1333333  0.0000000  )
        15           C   tau(  15) = (  0.2000000  0.2000000  0.0000000  )
        16           C   tau(  16) = (  0.2666667  0.3333333  0.0000000  )
        17           C   tau(  17) = (  0.2000000  0.4000000  0.0000000  )
        18           C   tau(  18) = (  0.2666667  0.5333333  0.0000000  )
        19           C   tau(  19) = (  0.2000000  0.6000000  0.0000000  )
        20           C   tau(  20) = (  0.2666667  0.7333333  0.0000000  )
        21           C   tau(  21) = (  0.2000000  0.8000000  0.0000000  )
        22           C   tau(  22) = (  0.2666667  0.9333333  0.0000000  )
        23           C   tau(  23) = (  0.4000000  0.0000000  0.0000000  )
        24           C   tau(  24) = (  0.4666667  0.1333333  0.0000000  )
        25           C   tau(  25) = (  0.4000000  0.2000000  0.0000000  )
        26           C   tau(  26) = (  0.4666667  0.3333333  0.0000000  )
        27           C   tau(  27) = (  0.4000000  0.4000000  0.0000000  )
        28           Ni  tau(  28) = (  0.4666667  0.5333333  0.0000000  )
        29           C   tau(  29) = (  0.4000000  0.6000000  0.0000000  )
        30           C   tau(  30) = (  0.4666667  0.7333333  0.0000000  )
        31           C   tau(  31) = (  0.4000000  0.8000000  0.0000000  )
        32           C   tau(  32) = (  0.4666667  0.9333333  0.0000000  )
        33           C   tau(  33) = (  0.6000000  0.0000000  0.0000000  )
        34           C   tau(  34) = (  0.6666667  0.1333333  0.0000000  )
        35           C   tau(  35) = (  0.6000000  0.2000000  0.0000000  )
        36           C   tau(  36) = (  0.6666667  0.3333333  0.0000000  )
        37           C   tau(  37) = (  0.6000000  0.4000000  0.0000000  )
        38           C   tau(  38) = (  0.6666667  0.5333333  0.0000000  )
        39           C   tau(  39) = (  0.6000000  0.6000000  0.0000000  )
        40           C   tau(  40) = (  0.6666667  0.7333333  0.0000000  )
        41           C   tau(  41) = (  0.6000000  0.8000000  0.0000000  )
        42           C   tau(  42) = (  0.6666667  0.9333333  0.0000000  )
        43           C   tau(  43) = (  0.8000000  0.0000000  0.0000000  )
        44           C   tau(  44) = (  0.8666667  0.1333333  0.0000000  )
        45           C   tau(  45) = (  0.8000000  0.2000000  0.0000000  )
        46           C   tau(  46) = (  0.8666667  0.3333333  0.0000000  )
        47           C   tau(  47) = (  0.8000000  0.4000000  0.0000000  )
        48           C   tau(  48) = (  0.8666667  0.5333333  0.0000000  )
        49           C   tau(  49) = (  0.8000000  0.6000000  0.0000000  )
        50           C   tau(  50) = (  0.8666667  0.7333333  0.0000000  )
        51           C   tau(  51) = (  0.8000000  0.8000000  0.0000000  )
        52           C   tau(  52) = (  0.8666667  0.9333333  0.0000000  )

     number of k points=     1  Marzari-Vanderbilt smearing, width (Ry)=  0.0010
                       cart. coord. in units 2pi/alat
        k(    1) = (   0.0000000   0.0000000   0.0000000), wk =   1.0000000

                       cryst. coord.
        k(    1) = (   0.0000000   0.0000000   0.0000000), wk =   1.0000000

     Dense  grid:  1626001 G-vectors     FFT dimensions: ( 180, 180, 135)

     Smooth grid:   702581 G-vectors     FFT dimensions: ( 125, 125, 108)

     Dynamical RAM for                 wfc:      29.03 MB

     Dynamical RAM for     wfc (w. buffer):      87.10 MB

     Dynamical RAM for           str. fact:      12.41 MB

     Dynamical RAM for           local pot:       0.00 MB

     Dynamical RAM for          nlocal pot:      92.46 MB

     Dynamical RAM for                qrad:      19.73 MB

     Dynamical RAM for          rho,v,vnew:      58.92 MB

     Dynamical RAM for               rhoin:      19.64 MB

     Dynamical RAM for            rho*nmix:     132.32 MB

     Dynamical RAM for           G-vectors:      16.40 MB

     Dynamical RAM for          h,s,v(r/c):      12.38 MB

     Dynamical RAM for          <psi|beta>:       0.82 MB

     Dynamical RAM for                 psi:     116.14 MB

     Dynamical RAM for                hpsi:     116.14 MB

     Dynamical RAM for                spsi:     116.14 MB

     Dynamical RAM for      wfcinit/wfcrot:      93.90 MB

     Dynamical RAM for           addusdens:     975.89 MB

     Estimated static dynamical RAM per process >     489.64 MB

     Estimated max dynamical RAM per process >       1.43 GB

     Estimated total dynamical RAM >       8.59 GB
     Generating pointlists ...
     new r_m :   0.0252 (alat units)  0.5862 (a.u.) for type    1
     new r_m :   0.0476 (alat units)  1.1095 (a.u.) for type    2
     new r_m :   0.0476 (alat units)  1.1095 (a.u.) for type    3

     Check: negative core charge=   -0.000002

     Initial potential from superposition of free atoms

     starting charge  215.80530, renormalised to  216.00000

     negative rho (up, down):  1.303E-04 1.369E-02


---------------------------------------------------------------------------------
Carrying out rVV10 run using the following parameters:
Nqs =      20    Nr_points =    1024   r_max =   100.000
b_value =  6.30000    beta =  0.00901
     q_mesh =  0.00010000  0.00030000  0.00058939  0.00100810
               0.00161396  0.00249058  0.00375900  0.00559430
               0.00824984  0.01209221  0.01765183  0.02569619
               0.03733578  0.05417739  0.07854596  0.11380545
               0.16482331  0.23864234  0.34545298  0.50000000

Gradients computed in Reciprocal space

---------------------------------------------------------------------------------


     Starting wfcs are  208 randomized atomic wfcs

     total cpu time spent up to now is       84.7 secs

     Self-consistent Calculation

     iteration #  1     ecut=    70.00 Ry     beta= 0.70
     Davidson diagonalization with overlap
     ethr =  1.00E-02,  avg # of iterations =  4.5

     negative rho (up, down):  2.476E-04 1.212E-02

     total cpu time spent up to now is      238.9 secs

     total energy              =    -946.58633816 Ry
     Harris-Foulkes estimate   =    -949.76329405 Ry
     estimated scf accuracy    <      14.32206108 Ry

     total magnetization       =     6.00 Bohr mag/cell
     absolute magnetization    =     6.78 Bohr mag/cell

     iteration #  2     ecut=    70.00 Ry     beta= 0.70
     Davidson diagonalization with overlap
     ethr =  6.63E-03,  avg # of iterations =  4.0

     negative rho (up, down):  1.063E-03 1.068E-01

     total cpu time spent up to now is      379.8 secs

     total energy              =    -946.06360450 Ry
     Harris-Foulkes estimate   =    -957.66132955 Ry
     estimated scf accuracy    <      32.87173429 Ry

     total magnetization       =     4.00 Bohr mag/cell
     absolute magnetization    =     4.97 Bohr mag/cell

     iteration #  3     ecut=    70.00 Ry     beta= 0.70
     Davidson diagonalization with overlap
     ethr =  6.63E-03,  avg # of iterations =  4.5

     negative rho (up, down):  2.793E-02 4.126E-01

     total cpu time spent up to now is      504.0 secs

     total energy              =    -957.05487890 Ry
     Harris-Foulkes estimate   =    -953.65999904 Ry
     estimated scf accuracy    <      76.18598139 Ry

     total magnetization       =     2.00 Bohr mag/cell
     absolute magnetization    =    13.84 Bohr mag/cell

     iteration #  4     ecut=    70.00 Ry     beta= 0.70
     Davidson diagonalization with overlap
     ethr =  6.63E-03,  avg # of iterations =  3.0

     negative rho (up, down):  1.257E-01 5.334E-01

     total cpu time spent up to now is      618.9 secs

     total energy              =    -941.97957456 Ry
     Harris-Foulkes estimate   =    -961.77443302 Ry
     estimated scf accuracy    <     563.80423611 Ry

     total magnetization       =     0.00 Bohr mag/cell
     absolute magnetization    =    34.56 Bohr mag/cell

     iteration #  5     ecut=    70.00 Ry     beta= 0.70
     Davidson diagonalization with overlap
     ethr =  6.63E-03,  avg # of iterations =  4.0

     negative rho (up, down):  3.032E-02 4.556E-01

     total cpu time spent up to now is      757.7 secs

     total energy              =    -955.24274650 Ry
     Harris-Foulkes estimate   =    -953.29192810 Ry
     estimated scf accuracy    <      85.46534759 Ry

     total magnetization       =     4.00 Bohr mag/cell
     absolute magnetization    =    15.67 Bohr mag/cell

     iteration #  6     ecut=    70.00 Ry     beta= 0.70
     Davidson diagonalization with overlap
     ethr =  6.63E-03,  avg # of iterations =  2.5

     negative rho (up, down):  8.825E-02 4.588E-01

     total cpu time spent up to now is      869.6 secs

     total energy              =    -946.32165189 Ry
     Harris-Foulkes estimate   =    -956.43285135 Ry
     estimated scf accuracy    <     281.68265705 Ry

     total magnetization       =     2.00 Bohr mag/cell
     absolute magnetization    =    26.50 Bohr mag/cell

     iteration #  7     ecut=    70.00 Ry     beta= 0.70
     Davidson diagonalization with overlap
     ethr =  6.63E-03,  avg # of iterations =  2.0

     negative rho (up, down):  1.734E-02 4.015E-01

     total cpu time spent up to now is      992.9 secs

     total energy              =    -951.77367087 Ry
     Harris-Foulkes estimate   =    -951.65346330 Ry
     estimated scf accuracy    <      23.36025237 Ry

     total magnetization       =    -0.00 Bohr mag/cell
     absolute magnetization    =     7.54 Bohr mag/cell

     iteration #  8     ecut=    70.00 Ry     beta= 0.70
     Davidson diagonalization with overlap
     ethr =  6.63E-03,  avg # of iterations =  2.0

     negative rho (up, down):  9.953E-03 3.873E-01

     total cpu time spent up to now is     1100.9 secs

     total energy              =    -951.50954951 Ry
     Harris-Foulkes estimate   =    -952.03335917 Ry
     estimated scf accuracy    <      18.95436666 Ry

     total magnetization       =    -0.00 Bohr mag/cell
     absolute magnetization    =     6.82 Bohr mag/cell

     iteration #  9     ecut=    70.00 Ry     beta= 0.70
     Davidson diagonalization with overlap
     ethr =  6.63E-03,  avg # of iterations =  1.5

     negative rho (up, down):  5.308E-02 6.310E-02

     total cpu time spent up to now is     1210.7 secs

     total energy              =    -951.78037397 Ry
     Harris-Foulkes estimate   =    -951.96080874 Ry
     estimated scf accuracy    <       3.88225687 Ry

     total magnetization       =     0.00 Bohr mag/cell
     absolute magnetization    =     0.80 Bohr mag/cell

     iteration # 10     ecut=    70.00 Ry     beta= 0.70
     Davidson diagonalization with overlap
     ethr =  1.80E-03,  avg # of iterations =  3.5

     negative rho (up, down):  6.022E-03 2.550E-01

     total cpu time spent up to now is     1320.8 secs

     total energy              =    -951.81779519 Ry
     Harris-Foulkes estimate   =    -951.91414870 Ry
     estimated scf accuracy    <       1.32034441 Ry

     total magnetization       =    -0.00 Bohr mag/cell
     absolute magnetization    =     1.77 Bohr mag/cell

     iteration # 11     ecut=    70.00 Ry     beta= 0.70
     Davidson diagonalization with overlap
     ethr =  6.11E-04,  avg # of iterations =  4.5

     negative rho (up, down):  4.878E-03 2.425E-01

     total cpu time spent up to now is     1431.9 secs

     total energy              =    -951.85670075 Ry
     Harris-Foulkes estimate   =    -951.90842941 Ry
     estimated scf accuracy    <       0.40962290 Ry

     total magnetization       =    -0.00 Bohr mag/cell
     absolute magnetization    =     0.79 Bohr mag/cell

     iteration # 12     ecut=    70.00 Ry     beta= 0.70
     Davidson diagonalization with overlap
     ethr =  1.90E-04,  avg # of iterations =  2.0

     negative rho (up, down):  2.072E-03 1.634E-01

     total cpu time spent up to now is     1542.1 secs

     total energy              =    -951.87873715 Ry
     Harris-Foulkes estimate   =    -951.88723904 Ry
     estimated scf accuracy    <       0.07046421 Ry

     total magnetization       =    -0.00 Bohr mag/cell
     absolute magnetization    =     0.27 Bohr mag/cell

     iteration # 13     ecut=    70.00 Ry     beta= 0.70
     Davidson diagonalization with overlap
     ethr =  3.26E-05,  avg # of iterations =  8.0

     negative rho (up, down):  3.113E-03 9.205E-02

     total cpu time spent up to now is     1665.5 secs

     total energy              =    -951.88086342 Ry
     Harris-Foulkes estimate   =    -951.88844655 Ry
     estimated scf accuracy    <       0.09899020 Ry

     total magnetization       =     0.00 Bohr mag/cell
     absolute magnetization    =     0.41 Bohr mag/cell

     iteration # 14     ecut=    70.00 Ry     beta= 0.70
     Davidson diagonalization with overlap
     ethr =  3.26E-05,  avg # of iterations =  2.0

     negative rho (up, down):  4.398E-03 6.019E-02

     total cpu time spent up to now is     1779.2 secs

     total energy              =    -951.88240942 Ry
     Harris-Foulkes estimate   =    -951.88947505 Ry
     estimated scf accuracy    <       0.09680872 Ry

     total magnetization       =     0.00 Bohr mag/cell
     absolute magnetization    =     0.29 Bohr mag/cell

     iteration # 15     ecut=    70.00 Ry     beta= 0.70
     Davidson diagonalization with overlap
     ethr =  3.26E-05,  avg # of iterations =  2.0

     negative rho (up, down):  1.217E-03 1.312E-01

     total cpu time spent up to now is     1889.6 secs

     total energy              =    -951.88713921 Ry
     Harris-Foulkes estimate   =    -951.88649561 Ry
     estimated scf accuracy    <       0.02008384 Ry

     total magnetization       =     0.00 Bohr mag/cell
     absolute magnetization    =     0.21 Bohr mag/cell

     iteration # 16     ecut=    70.00 Ry     beta= 0.70
     Davidson diagonalization with overlap
     ethr =  9.30E-06,  avg # of iterations =  2.5

     negative rho (up, down):  1.783E-03 1.176E-01

     total cpu time spent up to now is     1999.6 secs

     total energy              =    -951.88732511 Ry
     Harris-Foulkes estimate   =    -951.88726755 Ry
     estimated scf accuracy    <       0.01470620 Ry

     total magnetization       =    -0.00 Bohr mag/cell
     absolute magnetization    =     0.19 Bohr mag/cell

     iteration # 17     ecut=    70.00 Ry     beta= 0.70
     Davidson diagonalization with overlap
     ethr =  6.81E-06,  avg # of iterations =  2.0

     negative rho (up, down):  1.612E-03 1.925E-01

     total cpu time spent up to now is     2107.6 secs

     total energy              =    -951.88535916 Ry
     Harris-Foulkes estimate   =    -951.88756679 Ry
     estimated scf accuracy    <       0.04451491 Ry

     total magnetization       =    -0.00 Bohr mag/cell
     absolute magnetization    =     0.35 Bohr mag/cell

     iteration # 18     ecut=    70.00 Ry     beta= 0.70
     Davidson diagonalization with overlap
     ethr =  6.81E-06,  avg # of iterations =  2.0

     negative rho (up, down):  1.127E-03 6.994E-02

     total cpu time spent up to now is     2220.1 secs

     total energy              =    -951.88721752 Ry
     Harris-Foulkes estimate   =    -951.88638304 Ry
     estimated scf accuracy    <       0.00154964 Ry

     total magnetization       =     0.00 Bohr mag/cell
     absolute magnetization    =     0.08 Bohr mag/cell

     iteration # 19     ecut=    70.00 Ry     beta= 0.70
     Davidson diagonalization with overlap
     ethr =  7.17E-07,  avg # of iterations =  5.0

     negative rho (up, down):  1.074E-03 2.381E-02

     total cpu time spent up to now is     2334.6 secs

     total energy              =    -951.88735670 Ry
     Harris-Foulkes estimate   =    -951.88728132 Ry
     estimated scf accuracy    <       0.00008880 Ry

     total magnetization       =    -0.00 Bohr mag/cell
     absolute magnetization    =     0.03 Bohr mag/cell

     iteration # 20     ecut=    70.00 Ry     beta= 0.70
     Davidson diagonalization with overlap
     ethr =  4.11E-08,  avg # of iterations =  3.0

     negative rho (up, down):  1.097E-03 5.465E-02

     total cpu time spent up to now is     2470.4 secs

     total energy              =    -951.88736532 Ry
     Harris-Foulkes estimate   =    -951.88741987 Ry
     estimated scf accuracy    <       0.00206664 Ry

     total magnetization       =    -0.00 Bohr mag/cell
     absolute magnetization    =     0.08 Bohr mag/cell

     iteration # 21     ecut=    70.00 Ry     beta= 0.70
     Davidson diagonalization with overlap
     ethr =  4.11E-08,  avg # of iterations =  2.0

     negative rho (up, down):  1.098E-03 7.017E-02

     total cpu time spent up to now is     2578.6 secs

     total energy              =    -951.88730960 Ry
     Harris-Foulkes estimate   =    -951.88736658 Ry
     estimated scf accuracy    <       0.00184122 Ry

     total magnetization       =     0.00 Bohr mag/cell
     absolute magnetization    =     0.07 Bohr mag/cell

     iteration # 22     ecut=    70.00 Ry     beta= 0.70
     Davidson diagonalization with overlap
     ethr =  4.11E-08,  avg # of iterations =  1.5

     negative rho (up, down):  1.080E-03 6.168E-02

     total cpu time spent up to now is     2687.6 secs

     total energy              =    -951.88734819 Ry
     Harris-Foulkes estimate   =    -951.88731314 Ry
     estimated scf accuracy    <       0.00093100 Ry

     total magnetization       =    -0.00 Bohr mag/cell
     absolute magnetization    =     0.06 Bohr mag/cell

     iteration # 23     ecut=    70.00 Ry     beta= 0.70
     Davidson diagonalization with overlap
     ethr =  4.11E-08,  avg # of iterations =  1.5

     negative rho (up, down):  1.086E-03 6.619E-02

     total cpu time spent up to now is     2795.5 secs

     total energy              =    -951.88733550 Ry
     Harris-Foulkes estimate   =    -951.88735016 Ry
     estimated scf accuracy    <       0.00136938 Ry

     total magnetization       =     0.00 Bohr mag/cell
     absolute magnetization    =     0.07 Bohr mag/cell

     iteration # 24     ecut=    70.00 Ry     beta= 0.70
     Davidson diagonalization with overlap
     ethr =  4.11E-08,  avg # of iterations =  1.5

     negative rho (up, down):  1.076E-03 6.505E-02

     total cpu time spent up to now is     2903.6 secs

     total energy              =    -951.88732994 Ry
     Harris-Foulkes estimate   =    -951.88734296 Ry
     estimated scf accuracy    <       0.00119182 Ry

     total magnetization       =     0.00 Bohr mag/cell
     absolute magnetization    =     0.06 Bohr mag/cell

     iteration # 25     ecut=    70.00 Ry     beta= 0.70
     Davidson diagonalization with overlap
     ethr =  4.11E-08,  avg # of iterations =  1.5

     negative rho (up, down):  1.075E-03 5.781E-02

     total cpu time spent up to now is     3011.5 secs

     total energy              =    -951.88732696 Ry
     Harris-Foulkes estimate   =    -951.88733649 Ry
     estimated scf accuracy    <       0.00078663 Ry

     total magnetization       =    -0.00 Bohr mag/cell
     absolute magnetization    =     0.05 Bohr mag/cell

     iteration # 26     ecut=    70.00 Ry     beta= 0.70
     Davidson diagonalization with overlap
     ethr =  4.11E-08,  avg # of iterations =  2.5

     negative rho (up, down):  1.145E-03 3.076E-02

     total cpu time spent up to now is     3125.2 secs

     total energy              =    -951.88732670 Ry
     Harris-Foulkes estimate   =    -951.88735876 Ry
     estimated scf accuracy    <       0.00102987 Ry

     total magnetization       =    -0.00 Bohr mag/cell
     absolute magnetization    =     0.04 Bohr mag/cell

     iteration # 27     ecut=    70.00 Ry     beta= 0.70
     Davidson diagonalization with overlap
     ethr =  4.11E-08,  avg # of iterations =  2.5

     negative rho (up, down):  1.073E-03 1.361E-02

     total cpu time spent up to now is     3240.3 secs

     total energy              =    -951.88739371 Ry
     Harris-Foulkes estimate   =    -951.88734472 Ry
     estimated scf accuracy    <       0.00002195 Ry

     total magnetization       =     0.00 Bohr mag/cell
     absolute magnetization    =     0.02 Bohr mag/cell

     iteration # 28     ecut=    70.00 Ry     beta= 0.70
     Davidson diagonalization with overlap
     ethr =  1.02E-08,  avg # of iterations =  3.0

     negative rho (up, down):  1.072E-03 2.855E-02

     total cpu time spent up to now is     3358.0 secs

     total energy              =    -951.88737861 Ry
     Harris-Foulkes estimate   =    -951.88739837 Ry
     estimated scf accuracy    <       0.00038184 Ry

     total magnetization       =    -0.00 Bohr mag/cell
     absolute magnetization    =     0.04 Bohr mag/cell

     iteration # 29     ecut=    70.00 Ry     beta= 0.70
     Davidson diagonalization with overlap
     ethr =  1.02E-08,  avg # of iterations =  2.5

     negative rho (up, down):  1.068E-03 1.385E-02

     total cpu time spent up to now is     3477.9 secs

     total energy              =    -951.88739435 Ry
     Harris-Foulkes estimate   =    -951.88738420 Ry
     estimated scf accuracy    <       0.00001935 Ry

     total magnetization       =     0.00 Bohr mag/cell
     absolute magnetization    =     0.01 Bohr mag/cell

     iteration # 30     ecut=    70.00 Ry     beta= 0.70
     Davidson diagonalization with overlap
     ethr =  8.96E-09,  avg # of iterations =  2.0

     negative rho (up, down):  1.067E-03 4.811E-03

     total cpu time spent up to now is     3586.8 secs

     total energy              =    -951.88739841 Ry
     Harris-Foulkes estimate   =    -951.88739554 Ry
     estimated scf accuracy    <       0.00000148 Ry

     total magnetization       =    -0.00 Bohr mag/cell
     absolute magnetization    =     0.01 Bohr mag/cell

     iteration # 31     ecut=    70.00 Ry     beta= 0.70
     Davidson diagonalization with overlap
     ethr =  6.85E-10,  avg # of iterations =  3.0

     negative rho (up, down):  1.066E-03 3.955E-05

     Magnetic moment per site:
     atom:    1    charge:    0.2108    magn:   -0.0000    constr:    0.0000
     atom:    2    charge:    0.2114    magn:    0.0000    constr:    0.0000
     atom:    3    charge:    1.7155    magn:    0.0001    constr:    0.0000
     atom:    4    charge:    1.7152    magn:   -0.0001    constr:    0.0000
     atom:    5    charge:    1.7168    magn:   -0.0000    constr:    0.0000
     atom:    6    charge:    1.7146    magn:    0.0000    constr:    0.0000
     atom:    7    charge:    1.7168    magn:   -0.0000    constr:    0.0000
     atom:    8    charge:    1.7152    magn:   -0.0000    constr:    0.0000
     atom:    9    charge:    1.7155    magn:    0.0001    constr:    0.0000
     atom:   10    charge:    1.7177    magn:   -0.0001    constr:    0.0000
     atom:   11    charge:    1.7156    magn:    0.0001    constr:    0.0000
     atom:   12    charge:    1.7177    magn:   -0.0002    constr:    0.0000
     atom:   13    charge:    1.7156    magn:    0.0001    constr:    0.0000
     atom:   14    charge:    1.7175    magn:   -0.0001    constr:    0.0000
     atom:   15    charge:    1.7117    magn:    0.0000    constr:    0.0000
     atom:   16    charge:    1.7114    magn:   -0.0000    constr:    0.0000
     atom:   17    charge:    1.7206    magn:    0.0000    constr:    0.0000
     atom:   18    charge:    1.7114    magn:   -0.0000    constr:    0.0000
     atom:   19    charge:    1.7117    magn:    0.0000    constr:    0.0000
     atom:   20    charge:    1.7175    magn:   -0.0001    constr:    0.0000
     atom:   21    charge:    1.7156    magn:    0.0001    constr:    0.0000
     atom:   22    charge:    1.7177    magn:   -0.0001    constr:    0.0000
     atom:   23    charge:    1.7155    magn:    0.0001    constr:    0.0000
     atom:   24    charge:    1.7152    magn:   -0.0000    constr:    0.0000
     atom:   25    charge:    1.7118    magn:    0.0000    constr:    0.0000
     atom:   26    charge:    1.7114    magn:    0.0000    constr:    0.0000
     atom:   27    charge:    1.8182    magn:   -0.0000    constr:    0.0000
     atom:   28    charge:   13.4053    magn:    0.0004    constr:    0.0000
     atom:   29    charge:    1.8181    magn:    0.0000    constr:    0.0000
     atom:   30    charge:    1.7114    magn:   -0.0000    constr:    0.0000
     atom:   31    charge:    1.7117    magn:    0.0000    constr:    0.0000
     atom:   32    charge:    1.7152    magn:   -0.0000    constr:    0.0000
     atom:   33    charge:    1.7168    magn:   -0.0000    constr:    0.0000
     atom:   34    charge:    1.7153    magn:    0.0000    constr:    0.0000
     atom:   35    charge:    1.7168    magn:   -0.0001    constr:    0.0000
     atom:   36    charge:    1.7146    magn:    0.0001    constr:    0.0000
     atom:   37    charge:    1.7207    magn:   -0.0000    constr:    0.0000
     atom:   38    charge:    1.7114    magn:    0.0000    constr:    0.0000
     atom:   39    charge:    1.8182    magn:   -0.0000    constr:    0.0000
     atom:   40    charge:    1.7114    magn:   -0.0000    constr:    0.0000
     atom:   41    charge:    1.7206    magn:    0.0000    constr:    0.0000
     atom:   42    charge:    1.7146    magn:    0.0000    constr:    0.0000
     atom:   43    charge:    1.7168    magn:   -0.0000    constr:    0.0000
     atom:   44    charge:    1.7154    magn:    0.0000    constr:    0.0000
     atom:   45    charge:    1.7212    magn:   -0.0000    constr:    0.0000
     atom:   46    charge:    1.7153    magn:    0.0000    constr:    0.0000
     atom:   47    charge:    1.7168    magn:   -0.0001    constr:    0.0000
     atom:   48    charge:    1.7152    magn:   -0.0000    constr:    0.0000
     atom:   49    charge:    1.7118    magn:    0.0000    constr:    0.0000
     atom:   50    charge:    1.7175    magn:   -0.0001    constr:    0.0000
     atom:   51    charge:    1.7117    magn:    0.0000    constr:    0.0000
     atom:   52    charge:    1.7152    magn:   -0.0001    constr:    0.0000

     total cpu time spent up to now is     3705.6 secs

     End of self-consistent calculation

 ------ SPIN UP ------------


          k = 0.0000 0.0000 0.0000 ( 87777 PWs)   bands (ev):

  -107.9200 -69.0886 -69.0883 -67.0039 -19.8260 -19.0068 -19.0066 -18.8881
   -18.8877 -18.8029 -18.7353 -17.1628 -17.1624 -17.1279 -17.0791 -17.0782
   -16.7526 -16.3118 -16.3116 -16.1652 -16.1649 -16.1517 -15.6694 -14.3102
   -14.3098 -14.1494 -14.0161 -14.0156 -13.5134 -13.1281 -13.1280 -13.0763
   -12.9003 -12.9000 -12.5000 -12.0753 -12.0750 -11.7117 -11.5676 -11.5675
   -10.9337 -10.4317 -10.4315  -9.5767  -9.3653  -9.3649  -9.2258  -9.2109
    -9.2108  -9.1961  -8.9521  -8.9520  -8.5924  -8.5922  -8.4568  -7.9430
    -7.9013  -7.8466  -7.8454  -7.6633  -7.5410  -7.5407  -7.4479  -7.4477
    -6.8455  -6.8218  -6.8209  -6.7535  -6.7082  -6.6190  -6.6184  -6.5547
    -6.5497  -6.5496  -6.5162  -6.4916  -6.4246  -6.4221  -6.3765  -6.2885
    -6.2884  -5.5461  -5.5459  -5.0301  -4.9489  -4.8420  -4.8418  -4.7572
    -4.7162  -4.7153  -4.4271  -4.3982  -4.3978  -3.8358  -3.8357  -3.7638
    -3.7581  -3.7581  -3.7289  -3.4193  -3.4189  -3.3504  -1.8911  -1.8060
    -1.8055  -1.5901  -1.5888  -1.1567   0.1077   0.1082   0.9049   0.9625
     0.9638   1.2134   1.2134   1.5510   2.5012   2.8027   2.8041   2.8529
     3.0396   3.0410   3.4452   3.6063   3.6287   3.7361   3.7399   3.7653
     3.8626   4.0161

     occupation numbers 
     1.0000   1.0000   1.0000   1.0000   1.0000   1.0000   1.0000   1.0000
     1.0000   1.0000   1.0000   1.0000   1.0000   1.0000   1.0000   1.0000
     1.0000   1.0000   1.0000   1.0000   1.0000   1.0000   1.0000   1.0000
     1.0000   1.0000   1.0000   1.0000   1.0000   1.0000   1.0000   1.0000
     1.0000   1.0000   1.0000   1.0000   1.0000   1.0000   1.0000   1.0000
     1.0000   1.0000   1.0000   1.0000   1.0000   1.0000   1.0000   1.0000
     1.0000   1.0000   1.0000   1.0000   1.0000   1.0000   1.0000   1.0000
     1.0000   1.0000   1.0000   1.0000   1.0000   1.0000   1.0000   1.0000
     1.0000   1.0000   1.0000   1.0000   1.0000   1.0000   1.0000   1.0000
     1.0000   1.0000   1.0000   1.0000   1.0000   1.0000   1.0000   1.0000
     1.0000   1.0000   1.0000   1.0000   1.0000   1.0000   1.0000   1.0000
     1.0000   1.0000   1.0000   1.0000   1.0000   1.0000   1.0000   1.0000
     1.0000   1.0000   1.0000   1.0000   1.0000   1.0000   1.0000   1.0000
     1.0000   1.0000   1.0000   1.0000   0.0000   0.0000   0.0000   0.0000
     0.0000   0.0000   0.0000   0.0000   0.0000   0.0000   0.0000   0.0000
     0.0000   0.0000   0.0000   0.0000   0.0000   0.0000   0.0000   0.0000
     0.0000   0.0000

 ------ SPIN DOWN ----------


          k = 0.0000 0.0000 0.0000 ( 87777 PWs)   bands (ev):

  -107.9184 -69.0870 -69.0866 -67.0025 -19.8260 -19.0068 -19.0066 -18.8881
   -18.8877 -18.8029 -18.7354 -17.1629 -17.1624 -17.1279 -17.0791 -17.0782
   -16.7526 -16.3117 -16.3115 -16.1653 -16.1651 -16.1517 -15.6694 -14.3103
   -14.3099 -14.1495 -14.0159 -14.0154 -13.5135 -13.1281 -13.1280 -13.0764
   -12.9003 -12.9000 -12.5001 -12.0754 -12.0750 -11.7117 -11.5676 -11.5675
   -10.9338 -10.4315 -10.4313  -9.5767  -9.3653  -9.3649  -9.2259  -9.2109
    -9.2109  -9.1961  -8.9520  -8.9520  -8.5923  -8.5921  -8.4568  -7.9430
    -7.9013  -7.8461  -7.8450  -7.6634  -7.5410  -7.5408  -7.4478  -7.4477
    -6.8455  -6.8219  -6.8209  -6.7535  -6.7082  -6.6190  -6.6184  -6.5547
    -6.5497  -6.5496  -6.5162  -6.4915  -6.4244  -6.4218  -6.3763  -6.2885
    -6.2883  -5.5460  -5.5459  -5.0301  -4.9489  -4.8419  -4.8418  -4.7573
    -4.7162  -4.7153  -4.4271  -4.3982  -4.3978  -3.8359  -3.8357  -3.7639
    -3.7581  -3.7581  -3.7286  -3.4192  -3.4187  -3.3502  -1.8913  -1.8056
    -1.8051  -1.5903  -1.5891  -1.1568   0.1079   0.1081   0.9047   0.9628
     0.9640   1.2133   1.2133   1.5510   2.5011   2.8026   2.8040   2.8529
     3.0397   3.0410   3.4452   3.6060   3.6284   3.7359   3.7399   3.7653
     3.8623   4.0161

     occupation numbers 
     1.0000   1.0000   1.0000   1.0000   1.0000   1.0000   1.0000   1.0000
     1.0000   1.0000   1.0000   1.0000   1.0000   1.0000   1.0000   1.0000
     1.0000   1.0000   1.0000   1.0000   1.0000   1.0000   1.0000   1.0000
     1.0000   1.0000   1.0000   1.0000   1.0000   1.0000   1.0000   1.0000
     1.0000   1.0000   1.0000   1.0000   1.0000   1.0000   1.0000   1.0000
     1.0000   1.0000   1.0000   1.0000   1.0000   1.0000   1.0000   1.0000
     1.0000   1.0000   1.0000   1.0000   1.0000   1.0000   1.0000   1.0000
     1.0000   1.0000   1.0000   1.0000   1.0000   1.0000   1.0000   1.0000
     1.0000   1.0000   1.0000   1.0000   1.0000   1.0000   1.0000   1.0000
     1.0000   1.0000   1.0000   1.0000   1.0000   1.0000   1.0000   1.0000
     1.0000   1.0000   1.0000   1.0000   1.0000   1.0000   1.0000   1.0000
     1.0000   1.0000   1.0000   1.0000   1.0000   1.0000   1.0000   1.0000
     1.0000   1.0000   1.0000   1.0000   1.0000   1.0000   1.0000   1.0000
     1.0000   1.0000   1.0000   1.0000   0.0000   0.0000   0.0000   0.0000
     0.0000   0.0000   0.0000   0.0000   0.0000   0.0000   0.0000   0.0000
     0.0000   0.0000   0.0000   0.0000   0.0000   0.0000   0.0000   0.0000
     0.0000   0.0000

     the Fermi energy is    -0.3313 ev

!    total energy              =    -951.88739898 Ry
     Harris-Foulkes estimate   =    -951.88739865 Ry
     estimated scf accuracy    <       0.00000041 Ry

     The total energy is the sum of the following terms:

     one-electron contribution =   -2966.30723956 Ry
     hartree contribution      =    1525.80193001 Ry
     xc contribution           =    -265.71497183 Ry
     ewald contribution        =     754.33288239 Ry
     smearing contrib. (-TS)   =       0.00000000 Ry

     total magnetization       =    -0.00 Bohr mag/cell
     absolute magnetization    =     0.01 Bohr mag/cell

     convergence has been achieved in  31 iterations

     Writing output data file distance-3.5.save/

     init_run     :     82.16s CPU     83.60s WALL (       1 calls)
     electrons    :   3560.62s CPU   3621.00s WALL (       1 calls)

     Called by init_run:
     wfcinit      :     50.27s CPU     50.59s WALL (       1 calls)
     wfcinit:atom :      0.07s CPU      0.11s WALL (       2 calls)
     wfcinit:wfcr :     49.81s CPU     50.03s WALL (       2 calls)
     potinit      :     13.23s CPU     13.71s WALL (       1 calls)
     hinit0       :      8.66s CPU      8.68s WALL (       1 calls)

     Called by electrons:
     c_bands      :   2288.91s CPU   2299.89s WALL (      31 calls)
     sum_band     :    750.87s CPU    770.57s WALL (      31 calls)
     v_of_rho     :    253.08s CPU    265.57s WALL (      32 calls)
     v_h          :      2.84s CPU      2.91s WALL (      32 calls)
     v_xc         :    250.24s CPU    262.66s WALL (      32 calls)
     newd         :    259.12s CPU    276.89s WALL (      32 calls)
     mix_rho      :     16.81s CPU     17.04s WALL (      31 calls)

     Called by c_bands:
     init_us_2    :      6.93s CPU      6.97s WALL (     126 calls)
     cegterg      :   2273.10s CPU   2284.02s WALL (      62 calls)

     Called by sum_band:
     sum_band:bec :      0.05s CPU      0.05s WALL (      62 calls)
     addusdens    :    457.50s CPU    475.39s WALL (      31 calls)

     Called by *egterg:
     h_psi        :   1215.53s CPU   1223.10s WALL (     240 calls)
     s_psi        :    410.83s CPU    411.00s WALL (     240 calls)
     g_psi        :      1.13s CPU      1.13s WALL (     176 calls)
     cdiaghg      :     16.25s CPU     16.26s WALL (     238 calls)
     cegterg:over :    268.30s CPU    268.43s WALL (     176 calls)
     cegterg:upda :    161.33s CPU    162.21s WALL (     176 calls)
     cegterg:last :    120.05s CPU    120.08s WALL (      62 calls)

     Called by h_psi:
     h_psi:pot    :   1214.18s CPU   1220.36s WALL (     240 calls)
     h_psi:calbec :    411.26s CPU    411.44s WALL (     240 calls)
     vloc_psi     :    392.20s CPU    398.09s WALL (     240 calls)
     add_vuspsi   :    410.71s CPU    410.83s WALL (     240 calls)

     General routines
     calbec       :    592.09s CPU    592.32s WALL (     302 calls)
     fft          :    150.39s CPU    155.61s WALL (    2394 calls)
     ffts         :      2.65s CPU      2.76s WALL (     126 calls)
     fftw         :    410.15s CPU    416.49s WALL (   44864 calls)
     interpolate  :      6.36s CPU      6.53s WALL (      64 calls)

     Parallel routines
     fft_scatt_xy :    106.74s CPU    107.78s WALL (   47384 calls)
     fft_scatt_yz :    175.23s CPU    183.77s WALL (   47384 calls)

     PWSCF        :      1h 0m CPU      1h 1m WALL


   This run was terminated on:   3:16:26  24Dec2022            

=------------------------------------------------------------------------------=
   JOB DONE.
=------------------------------------------------------------------------------=
