
     Program PWSCF v.6.4.1 starts on 29Dec2022 at 18:14:13 

     This program is part of the open-source Quantum ESPRESSO suite
     for quantum simulation of materials; please cite
         "P. Giannozzi et al., J. Phys.:Condens. Matter 21 395502 (2009);
         "P. Giannozzi et al., J. Phys.:Condens. Matter 29 465901 (2017);
          URL http://www.quantum-espresso.org", 
     in publications or presentations arising from this work. More details at
     http://www.quantum-espresso.org/quote

     Parallel version (MPI), running on     6 processors

     MPI processes distributed on     1 nodes
     R & G space division:  proc/nbgrp/npool/nimage =       6
     Reading input from distance-3.0.in

     Current dimensions of program PWSCF are:
     Max number of different atomic species (ntypx) = 10
     Max number of k-points (npk) =  40000
     Max angular momentum in pseudopotentials (lmaxx) =  3

     IMPORTANT: XC functional enforced from input :
     Exchange-correlation      = RVV10 ( 1  4 13  4 3 0)
     Any further DFT definition will be discarded
     Please, verify this is what you really want

               file H.pbe-rrkjus.UPF: wavefunction(s)  1S renormalized

     Subspace diagonalization in iterative solution of the eigenvalue problem:
     a serial algorithm will be used


     Parallelization info
     --------------------
     sticks:   dense  smooth     PW     G-vecs:    dense   smooth      PW
     Min        3051    1746    432               270999   117096   14629
     Max        3053    1747    437               271001   117099   14630
     Sum       18313   10477   2611              1626001   702581   87777



     bravais-lattice index     =            4
     lattice parameter (alat)  =      23.2937  a.u.
     unit-cell volume          =    8879.8548 (a.u.)^3
     number of atoms/cell      =           52
     number of atomic types    =            3
     number of electrons       =       216.00
     number of Kohn-Sham states=          130
     kinetic-energy cutoff     =      70.0000  Ry
     charge density cutoff     =     490.0000  Ry
     convergence threshold     =      1.0E-06
     mixing beta               =       0.7000
     number of iterations used =            8  plain     mixing
     Exchange-correlation      = RVV10 ( 1  4 13  4 3 0)

     celldm(1)=  23.293684  celldm(2)=   0.000000  celldm(3)=   0.811261
     celldm(4)=   0.000000  celldm(5)=   0.000000  celldm(6)=   0.000000

     crystal axes: (cart. coord. in units of alat)
               a(1) = (   1.000000   0.000000   0.000000 )  
               a(2) = (  -0.500000   0.866025   0.000000 )  
               a(3) = (   0.000000   0.000000   0.811261 )  

     reciprocal axes: (cart. coord. in units 2 pi/alat)
               b(1) = (  1.000000  0.577350 -0.000000 )  
               b(2) = (  0.000000  1.154701  0.000000 )  
               b(3) = (  0.000000 -0.000000  1.232649 )  


     PseudoPot. # 1 for H  read from file:
     /home/cristian/Escritorio/Proyecto_Grafeno/pseudopotenciales/H.pbe-rrkjus.UPF
     MD5 check sum: 7cc9d459525c9a0585f487a71c3c9563
     Pseudo is Ultrasoft, Zval =  1.0
     Generated by new atomic code, or converted to UPF format
     Using radial grid of 1061 points,  2 beta functions with: 
                l(1) =   0
                l(2) =   0
     Q(r) pseudized with 0 coefficients 


     PseudoPot. # 2 for C  read from file:
     /home/cristian/Escritorio/Proyecto_Grafeno/pseudopotenciales/C.pbe-n-rrkjus_psl.1.0.0.UPF
     MD5 check sum: 1fdd950c42eb37d8afe3dd2f8d12311e
     Pseudo is Ultrasoft + core correction, Zval =  4.0
     Generated using "atomic" code by A. Dal Corso v.6.3MaX
     Using radial grid of 1073 points,  4 beta functions with: 
                l(1) =   0
                l(2) =   0
                l(3) =   1
                l(4) =   1
     Q(r) pseudized with 0 coefficients 


     PseudoPot. # 3 for Ni read from file:
     /home/cristian/Escritorio/Proyecto_Grafeno/pseudopotenciales/Ni.pbe-spn-rrkjus_psl.1.0.0.UPF
     MD5 check sum: 8b3fc9aac6dafe35f580d41bb18c3945
     Pseudo is Ultrasoft + core correction, Zval = 18.0
     Generated using "atomic" code by A. Dal Corso v.6.3
     Using radial grid of 1195 points,  6 beta functions with: 
                l(1) =   0
                l(2) =   0
                l(3) =   1
                l(4) =   1
                l(5) =   2
                l(6) =   2
     Q(r) pseudized with 0 coefficients 


     vdW kernel table read from file rVV10_kernel_table
     MD5 check sum: b8e2538accc0c0b3206b45ba4daaba6c

     atomic species   valence    mass     pseudopotential
        H              1.00     1.00794     H ( 1.00)
        C              4.00    12.01070     C ( 1.00)
        Ni            18.00    58.69340     Ni( 1.00)

     Starting magnetic structure 
     atomic species   magnetization
        H            0.500
        C            0.300
        Ni           0.800

      2 Sym. Ops. (no inversion) found


                                    s                        frac. trans.

      isym =  1     identity                                     

 cryst.   s( 1) = (     1          0          0      )
                  (     0          1          0      )
                  (     0          0          1      )

 cart.    s( 1) = (  1.0000000  0.0000000  0.0000000 )
                  (  0.0000000  1.0000000  0.0000000 )
                  (  0.0000000  0.0000000  1.0000000 )


      isym =  2     inv. 180 deg rotation - cryst. axis [1,1,0]  

 cryst.   s( 2) = (     0         -1          0      )
                  (    -1          0          0      )
                  (     0          0          1      )

 cart.    s( 2) = (  0.5000000 -0.8660254  0.0000000 )
                  ( -0.8660254 -0.5000000  0.0000000 )
                  (  0.0000000  0.0000000  1.0000000 )


     point group C_s (m)    
     there are  2 classes
     the character table:

       E     s    
A'     1.00  1.00
A''    1.00 -1.00

     the symmetry operations in each class and the name of the first element:

     E        1
          identity                                               
     s        2
          inv. 180 deg rotation - cryst. axis [1,1,0]            

   Cartesian axes

     site n.     atom                  positions (alat units)
         1           H   tau(   1) = (   0.3000000   0.4041452   0.2433783  )
         2           H   tau(   2) = (   0.3000000   0.4041452   0.3043910  )
         3           C   tau(   3) = (   0.0000000   0.0000000   0.0000000  )
         4           C   tau(   4) = (   0.0000000   0.1154701   0.0000000  )
         5           C   tau(   5) = (  -0.1000000   0.1732051   0.0000000  )
         6           C   tau(   6) = (  -0.1000000   0.2886751   0.0000000  )
         7           C   tau(   7) = (  -0.2000000   0.3464102   0.0000000  )
         8           C   tau(   8) = (  -0.2000000   0.4618802   0.0000000  )
         9           C   tau(   9) = (  -0.3000000   0.5196152   0.0000000  )
        10           C   tau(  10) = (  -0.3000000   0.6350853   0.0000000  )
        11           C   tau(  11) = (  -0.4000000   0.6928203   0.0000000  )
        12           C   tau(  12) = (  -0.4000000   0.8082904   0.0000000  )
        13           C   tau(  13) = (   0.2000000   0.0000000   0.0000000  )
        14           C   tau(  14) = (   0.2000000   0.1154701   0.0000000  )
        15           C   tau(  15) = (   0.1000000   0.1732051   0.0000000  )
        16           C   tau(  16) = (   0.1000000   0.2886751   0.0000000  )
        17           C   tau(  17) = (   0.0000000   0.3464102   0.0000000  )
        18           C   tau(  18) = (   0.0000000   0.4618802   0.0000000  )
        19           C   tau(  19) = (  -0.1000000   0.5196152   0.0000000  )
        20           C   tau(  20) = (  -0.1000000   0.6350853   0.0000000  )
        21           C   tau(  21) = (  -0.2000000   0.6928203   0.0000000  )
        22           C   tau(  22) = (  -0.2000000   0.8082904   0.0000000  )
        23           C   tau(  23) = (   0.4000000   0.0000000   0.0000000  )
        24           C   tau(  24) = (   0.4000000   0.1154701   0.0000000  )
        25           C   tau(  25) = (   0.3000000   0.1732051   0.0000000  )
        26           C   tau(  26) = (   0.3000000   0.2886751   0.0000000  )
        27           C   tau(  27) = (   0.2000000   0.3464102   0.0000000  )
        28           Ni  tau(  28) = (   0.2000000   0.4618802   0.0000000  )
        29           C   tau(  29) = (   0.1000000   0.5196152   0.0000000  )
        30           C   tau(  30) = (   0.1000000   0.6350853   0.0000000  )
        31           C   tau(  31) = (   0.0000000   0.6928203   0.0000000  )
        32           C   tau(  32) = (   0.0000000   0.8082904   0.0000000  )
        33           C   tau(  33) = (   0.6000000   0.0000000   0.0000000  )
        34           C   tau(  34) = (   0.6000000   0.1154701   0.0000000  )
        35           C   tau(  35) = (   0.5000000   0.1732051   0.0000000  )
        36           C   tau(  36) = (   0.5000000   0.2886751   0.0000000  )
        37           C   tau(  37) = (   0.4000000   0.3464102   0.0000000  )
        38           C   tau(  38) = (   0.4000000   0.4618802   0.0000000  )
        39           C   tau(  39) = (   0.3000000   0.5196152   0.0000000  )
        40           C   tau(  40) = (   0.3000000   0.6350853   0.0000000  )
        41           C   tau(  41) = (   0.2000000   0.6928203   0.0000000  )
        42           C   tau(  42) = (   0.2000000   0.8082904   0.0000000  )
        43           C   tau(  43) = (   0.8000000   0.0000000   0.0000000  )
        44           C   tau(  44) = (   0.8000000   0.1154701   0.0000000  )
        45           C   tau(  45) = (   0.7000000   0.1732051   0.0000000  )
        46           C   tau(  46) = (   0.7000000   0.2886751   0.0000000  )
        47           C   tau(  47) = (   0.6000000   0.3464102   0.0000000  )
        48           C   tau(  48) = (   0.6000000   0.4618802   0.0000000  )
        49           C   tau(  49) = (   0.5000000   0.5196152   0.0000000  )
        50           C   tau(  50) = (   0.5000000   0.6350853   0.0000000  )
        51           C   tau(  51) = (   0.4000000   0.6928203   0.0000000  )
        52           C   tau(  52) = (   0.4000000   0.8082904   0.0000000  )

   Crystallographic axes

     site n.     atom                  positions (cryst. coord.)
         1           H   tau(   1) = (  0.5333333  0.4666667  0.3000000  )
         2           H   tau(   2) = (  0.5333333  0.4666667  0.3752072  )
         3           C   tau(   3) = (  0.0000000  0.0000000  0.0000000  )
         4           C   tau(   4) = (  0.0666667  0.1333333  0.0000000  )
         5           C   tau(   5) = (  0.0000000  0.2000000  0.0000000  )
         6           C   tau(   6) = (  0.0666667  0.3333333  0.0000000  )
         7           C   tau(   7) = (  0.0000000  0.4000000  0.0000000  )
         8           C   tau(   8) = (  0.0666667  0.5333333  0.0000000  )
         9           C   tau(   9) = (  0.0000000  0.6000000  0.0000000  )
        10           C   tau(  10) = (  0.0666667  0.7333333  0.0000000  )
        11           C   tau(  11) = (  0.0000000  0.8000000  0.0000000  )
        12           C   tau(  12) = (  0.0666667  0.9333333  0.0000000  )
        13           C   tau(  13) = (  0.2000000  0.0000000  0.0000000  )
        14           C   tau(  14) = (  0.2666667  0.1333333  0.0000000  )
        15           C   tau(  15) = (  0.2000000  0.2000000  0.0000000  )
        16           C   tau(  16) = (  0.2666667  0.3333333  0.0000000  )
        17           C   tau(  17) = (  0.2000000  0.4000000  0.0000000  )
        18           C   tau(  18) = (  0.2666667  0.5333333  0.0000000  )
        19           C   tau(  19) = (  0.2000000  0.6000000  0.0000000  )
        20           C   tau(  20) = (  0.2666667  0.7333333  0.0000000  )
        21           C   tau(  21) = (  0.2000000  0.8000000  0.0000000  )
        22           C   tau(  22) = (  0.2666667  0.9333333  0.0000000  )
        23           C   tau(  23) = (  0.4000000  0.0000000  0.0000000  )
        24           C   tau(  24) = (  0.4666667  0.1333333  0.0000000  )
        25           C   tau(  25) = (  0.4000000  0.2000000  0.0000000  )
        26           C   tau(  26) = (  0.4666667  0.3333333  0.0000000  )
        27           C   tau(  27) = (  0.4000000  0.4000000  0.0000000  )
        28           Ni  tau(  28) = (  0.4666667  0.5333333  0.0000000  )
        29           C   tau(  29) = (  0.4000000  0.6000000  0.0000000  )
        30           C   tau(  30) = (  0.4666667  0.7333333  0.0000000  )
        31           C   tau(  31) = (  0.4000000  0.8000000  0.0000000  )
        32           C   tau(  32) = (  0.4666667  0.9333333  0.0000000  )
        33           C   tau(  33) = (  0.6000000  0.0000000  0.0000000  )
        34           C   tau(  34) = (  0.6666667  0.1333333  0.0000000  )
        35           C   tau(  35) = (  0.6000000  0.2000000  0.0000000  )
        36           C   tau(  36) = (  0.6666667  0.3333333  0.0000000  )
        37           C   tau(  37) = (  0.6000000  0.4000000  0.0000000  )
        38           C   tau(  38) = (  0.6666667  0.5333333  0.0000000  )
        39           C   tau(  39) = (  0.6000000  0.6000000  0.0000000  )
        40           C   tau(  40) = (  0.6666667  0.7333333  0.0000000  )
        41           C   tau(  41) = (  0.6000000  0.8000000  0.0000000  )
        42           C   tau(  42) = (  0.6666667  0.9333333  0.0000000  )
        43           C   tau(  43) = (  0.8000000  0.0000000  0.0000000  )
        44           C   tau(  44) = (  0.8666667  0.1333333  0.0000000  )
        45           C   tau(  45) = (  0.8000000  0.2000000  0.0000000  )
        46           C   tau(  46) = (  0.8666667  0.3333333  0.0000000  )
        47           C   tau(  47) = (  0.8000000  0.4000000  0.0000000  )
        48           C   tau(  48) = (  0.8666667  0.5333333  0.0000000  )
        49           C   tau(  49) = (  0.8000000  0.6000000  0.0000000  )
        50           C   tau(  50) = (  0.8666667  0.7333333  0.0000000  )
        51           C   tau(  51) = (  0.8000000  0.8000000  0.0000000  )
        52           C   tau(  52) = (  0.8666667  0.9333333  0.0000000  )

     number of k points=     1  Marzari-Vanderbilt smearing, width (Ry)=  0.0010
                       cart. coord. in units 2pi/alat
        k(    1) = (   0.0000000   0.0000000   0.0000000), wk =   1.0000000

                       cryst. coord.
        k(    1) = (   0.0000000   0.0000000   0.0000000), wk =   1.0000000

     Dense  grid:  1626001 G-vectors     FFT dimensions: ( 180, 180, 135)

     Smooth grid:   702581 G-vectors     FFT dimensions: ( 125, 125, 108)

     Dynamical RAM for                 wfc:      29.03 MB

     Dynamical RAM for     wfc (w. buffer):      87.10 MB

     Dynamical RAM for           str. fact:      12.41 MB

     Dynamical RAM for           local pot:       0.00 MB

     Dynamical RAM for          nlocal pot:      92.46 MB

     Dynamical RAM for                qrad:      19.73 MB

     Dynamical RAM for          rho,v,vnew:      58.92 MB

     Dynamical RAM for               rhoin:      19.64 MB

     Dynamical RAM for            rho*nmix:     132.32 MB

     Dynamical RAM for           G-vectors:      16.40 MB

     Dynamical RAM for          h,s,v(r/c):      12.38 MB

     Dynamical RAM for          <psi|beta>:       0.82 MB

     Dynamical RAM for                 psi:     116.14 MB

     Dynamical RAM for                hpsi:     116.14 MB

     Dynamical RAM for                spsi:     116.14 MB

     Dynamical RAM for      wfcinit/wfcrot:      93.90 MB

     Dynamical RAM for           addusdens:     975.89 MB

     Estimated static dynamical RAM per process >     489.64 MB

     Estimated max dynamical RAM per process >       1.43 GB

     Estimated total dynamical RAM >       8.59 GB
     Generating pointlists ...
     new r_m :   0.0252 (alat units)  0.5862 (a.u.) for type    1
     new r_m :   0.0476 (alat units)  1.1095 (a.u.) for type    2
     new r_m :   0.0476 (alat units)  1.1095 (a.u.) for type    3

     Check: negative core charge=   -0.000002

     Initial potential from superposition of free atoms

     starting charge  215.80530, renormalised to  216.00000

     negative rho (up, down):  1.383E-04 1.465E-02


---------------------------------------------------------------------------------
Carrying out rVV10 run using the following parameters:
Nqs =      20    Nr_points =    1024   r_max =   100.000
b_value =  6.30000    beta =  0.00901
     q_mesh =  0.00010000  0.00030000  0.00058939  0.00100810
               0.00161396  0.00249058  0.00375900  0.00559430
               0.00824984  0.01209221  0.01765183  0.02569619
               0.03733578  0.05417739  0.07854596  0.11380545
               0.16482331  0.23864234  0.34545298  0.50000000

Gradients computed in Reciprocal space

---------------------------------------------------------------------------------


     Starting wfcs are  208 randomized atomic wfcs

     total cpu time spent up to now is      101.9 secs

     Self-consistent Calculation

     iteration #  1     ecut=    70.00 Ry     beta= 0.70
     Davidson diagonalization with overlap
     ethr =  1.00E-02,  avg # of iterations =  5.0

     negative rho (up, down):  2.633E-04 1.281E-02

     total cpu time spent up to now is      288.6 secs

     total energy              =    -946.64840852 Ry
     Harris-Foulkes estimate   =    -949.74446170 Ry
     estimated scf accuracy    <      14.23409243 Ry

     total magnetization       =     6.00 Bohr mag/cell
     absolute magnetization    =     6.77 Bohr mag/cell

     iteration #  2     ecut=    70.00 Ry     beta= 0.70
     Davidson diagonalization with overlap
     ethr =  6.59E-03,  avg # of iterations =  4.0

     negative rho (up, down):  2.230E-03 1.620E-01

     total cpu time spent up to now is      453.8 secs

     total energy              =    -946.52189871 Ry
     Harris-Foulkes estimate   =    -957.40311052 Ry
     estimated scf accuracy    <      32.49911741 Ry

     total magnetization       =     4.00 Bohr mag/cell
     absolute magnetization    =     5.52 Bohr mag/cell

     iteration #  3     ecut=    70.00 Ry     beta= 0.70
     Davidson diagonalization with overlap
     ethr =  6.59E-03,  avg # of iterations =  4.0

     negative rho (up, down):  5.197E-02 4.730E-01

     total cpu time spent up to now is      607.8 secs

     total energy              =    -956.90523581 Ry
     Harris-Foulkes estimate   =    -955.23553088 Ry
     estimated scf accuracy    <     186.91159875 Ry

     total magnetization       =     2.00 Bohr mag/cell
     absolute magnetization    =    21.26 Bohr mag/cell

     iteration #  4     ecut=    70.00 Ry     beta= 0.70
     Davidson diagonalization with overlap
     ethr =  6.59E-03,  avg # of iterations =  2.0

     negative rho (up, down):  1.343E-01 5.295E-01

     total cpu time spent up to now is      719.6 secs

     total energy              =    -944.55505348 Ry
     Harris-Foulkes estimate   =    -957.28304050 Ry
     estimated scf accuracy    <     322.11716063 Ry

     total magnetization       =    -0.00 Bohr mag/cell
     absolute magnetization    =    26.19 Bohr mag/cell

     iteration #  5     ecut=    70.00 Ry     beta= 0.70
     Davidson diagonalization with overlap
     ethr =  6.59E-03,  avg # of iterations =  3.5

     negative rho (up, down):  9.790E-03 4.977E-01

     total cpu time spent up to now is      873.6 secs

     total energy              =    -954.06690893 Ry
     Harris-Foulkes estimate   =    -954.96889117 Ry
     estimated scf accuracy    <     192.23733874 Ry

     total magnetization       =     2.00 Bohr mag/cell
     absolute magnetization    =    22.57 Bohr mag/cell

     iteration #  6     ecut=    70.00 Ry     beta= 0.70
     Davidson diagonalization with overlap
     ethr =  6.59E-03,  avg # of iterations =  1.5

     negative rho (up, down):  4.753E-02 4.843E-01

     total cpu time spent up to now is      992.1 secs

     total energy              =    -951.25258077 Ry
     Harris-Foulkes estimate   =    -954.19331433 Ry
     estimated scf accuracy    <     142.91807238 Ry

     total magnetization       =     2.00 Bohr mag/cell
     absolute magnetization    =    19.51 Bohr mag/cell

     iteration #  7     ecut=    70.00 Ry     beta= 0.70
     Davidson diagonalization with overlap
     ethr =  6.59E-03,  avg # of iterations =  2.0

     negative rho (up, down):  6.451E-02 4.439E-01

     total cpu time spent up to now is     1118.1 secs

     total energy              =    -950.26546716 Ry
     Harris-Foulkes estimate   =    -952.50934068 Ry
     estimated scf accuracy    <      36.70532139 Ry

     total magnetization       =     4.00 Bohr mag/cell
     absolute magnetization    =    10.97 Bohr mag/cell

     iteration #  8     ecut=    70.00 Ry     beta= 0.70
     Davidson diagonalization with overlap
     ethr =  6.59E-03,  avg # of iterations =  2.0

     negative rho (up, down):  3.542E-02 3.772E-01

     total cpu time spent up to now is     1237.7 secs

     total energy              =    -951.59436171 Ry
     Harris-Foulkes estimate   =    -951.93138021 Ry
     estimated scf accuracy    <      10.52936984 Ry

     total magnetization       =     0.00 Bohr mag/cell
     absolute magnetization    =     5.45 Bohr mag/cell

     iteration #  9     ecut=    70.00 Ry     beta= 0.70
     Davidson diagonalization with overlap
     ethr =  4.87E-03,  avg # of iterations =  2.0

     negative rho (up, down):  3.872E-02 3.660E-01

     total cpu time spent up to now is     1355.3 secs

     total energy              =    -951.81970124 Ry
     Harris-Foulkes estimate   =    -951.94734134 Ry
     estimated scf accuracy    <       6.41650332 Ry

     total magnetization       =     0.00 Bohr mag/cell
     absolute magnetization    =     3.84 Bohr mag/cell

     iteration # 10     ecut=    70.00 Ry     beta= 0.70
     Davidson diagonalization with overlap
     ethr =  2.97E-03,  avg # of iterations =  1.5

     negative rho (up, down):  4.379E-02 3.114E-01

     total cpu time spent up to now is     1467.9 secs

     total energy              =    -951.84608686 Ry
     Harris-Foulkes estimate   =    -951.94119943 Ry
     estimated scf accuracy    <       5.52793441 Ry

     total magnetization       =    -0.00 Bohr mag/cell
     absolute magnetization    =     3.24 Bohr mag/cell

     iteration # 11     ecut=    70.00 Ry     beta= 0.70
     Davidson diagonalization with overlap
     ethr =  2.56E-03,  avg # of iterations =  1.5

     negative rho (up, down):  2.850E-02 3.375E-01

     total cpu time spent up to now is     1587.0 secs

     total energy              =    -951.86121052 Ry
     Harris-Foulkes estimate   =    -951.90909447 Ry
     estimated scf accuracy    <       2.89113333 Ry

     total magnetization       =     0.00 Bohr mag/cell
     absolute magnetization    =     2.54 Bohr mag/cell

     iteration # 12     ecut=    70.00 Ry     beta= 0.70
     Davidson diagonalization with overlap
     ethr =  1.34E-03,  avg # of iterations =  1.0

     negative rho (up, down):  2.558E-02 3.143E-01

     total cpu time spent up to now is     1703.8 secs

     total energy              =    -951.86949795 Ry
     Harris-Foulkes estimate   =    -951.88578853 Ry
     estimated scf accuracy    <       1.60143028 Ry

     total magnetization       =    -0.00 Bohr mag/cell
     absolute magnetization    =     1.86 Bohr mag/cell

     iteration # 13     ecut=    70.00 Ry     beta= 0.70
     Davidson diagonalization with overlap
     ethr =  7.41E-04,  avg # of iterations =  4.5

     negative rho (up, down):  2.290E-02 2.199E-01

     total cpu time spent up to now is     1822.7 secs

     total energy              =    -951.87878629 Ry
     Harris-Foulkes estimate   =    -951.88006671 Ry
     estimated scf accuracy    <       0.90848819 Ry

     total magnetization       =    -0.00 Bohr mag/cell
     absolute magnetization    =     1.28 Bohr mag/cell

     iteration # 14     ecut=    70.00 Ry     beta= 0.70
     Davidson diagonalization with overlap
     ethr =  4.21E-04,  avg # of iterations =  2.5

     negative rho (up, down):  2.279E-02 8.378E-02

     total cpu time spent up to now is     1942.9 secs

     total energy              =    -951.89205921 Ry
     Harris-Foulkes estimate   =    -951.88548497 Ry
     estimated scf accuracy    <       0.65617585 Ry

     total magnetization       =     0.00 Bohr mag/cell
     absolute magnetization    =     0.53 Bohr mag/cell

     iteration # 15     ecut=    70.00 Ry     beta= 0.70
     Davidson diagonalization with overlap
     ethr =  3.04E-04,  avg # of iterations =  2.5

     negative rho (up, down):  4.040E-02 4.945E-02

     total cpu time spent up to now is     2065.0 secs

     total energy              =    -951.86276412 Ry
     Harris-Foulkes estimate   =    -951.91217581 Ry
     estimated scf accuracy    <       1.45838703 Ry

     total magnetization       =    -0.00 Bohr mag/cell
     absolute magnetization    =     1.22 Bohr mag/cell

     iteration # 16     ecut=    70.00 Ry     beta= 0.70
     Davidson diagonalization with overlap
     ethr =  3.04E-04,  avg # of iterations =  2.0

     negative rho (up, down):  8.631E-03 2.063E-01

     total cpu time spent up to now is     2186.4 secs

     total energy              =    -951.84751976 Ry
     Harris-Foulkes estimate   =    -951.89778364 Ry
     estimated scf accuracy    <       0.72601019 Ry

     total magnetization       =    -0.00 Bohr mag/cell
     absolute magnetization    =     1.14 Bohr mag/cell

     iteration # 17     ecut=    70.00 Ry     beta= 0.70
     Davidson diagonalization with overlap
     ethr =  3.04E-04,  avg # of iterations =  7.5

     negative rho (up, down):  5.802E-02 3.330E-01

     total cpu time spent up to now is     2336.6 secs

     total energy              =    -952.22909855 Ry
     Harris-Foulkes estimate   =    -952.29024387 Ry
     estimated scf accuracy    <      19.35843548 Ry

     total magnetization       =     0.00 Bohr mag/cell
     absolute magnetization    =     6.19 Bohr mag/cell

     iteration # 18     ecut=    70.00 Ry     beta= 0.70
     Davidson diagonalization with overlap
     ethr =  3.04E-04,  avg # of iterations =  4.0

     negative rho (up, down):  2.218E-02 4.524E-01

     total cpu time spent up to now is     2479.4 secs

     total energy              =    -951.18055506 Ry
     Harris-Foulkes estimate   =    -952.47054229 Ry
     estimated scf accuracy    <      38.51366348 Ry

     total magnetization       =    -0.00 Bohr mag/cell
     absolute magnetization    =     9.25 Bohr mag/cell

     iteration # 19     ecut=    70.00 Ry     beta= 0.70
     Davidson diagonalization with overlap
     ethr =  3.04E-04,  avg # of iterations =  3.0

     negative rho (up, down):  1.696E-03 3.709E-01

     total cpu time spent up to now is     2601.6 secs

     total energy              =    -951.84867871 Ry
     Harris-Foulkes estimate   =    -951.79311885 Ry
     estimated scf accuracy    <       0.14970825 Ry

     total magnetization       =    -0.00 Bohr mag/cell
     absolute magnetization    =     0.51 Bohr mag/cell

     iteration # 20     ecut=    70.00 Ry     beta= 0.70
     Davidson diagonalization with overlap
     ethr =  6.93E-05,  avg # of iterations =  3.0

     negative rho (up, down):  9.742E-03 1.933E-01

     total cpu time spent up to now is     2716.3 secs

     total energy              =    -951.87938270 Ry
     Harris-Foulkes estimate   =    -951.86507155 Ry
     estimated scf accuracy    <       0.22416234 Ry

     total magnetization       =     0.00 Bohr mag/cell
     absolute magnetization    =     0.18 Bohr mag/cell

     iteration # 21     ecut=    70.00 Ry     beta= 0.70
     Davidson diagonalization with overlap
     ethr =  6.93E-05,  avg # of iterations =  5.5

     negative rho (up, down):  1.692E-02 1.089E-01

     total cpu time spent up to now is     2827.9 secs

     total energy              =    -951.87126285 Ry
     Harris-Foulkes estimate   =    -951.88263786 Ry
     estimated scf accuracy    <       0.33179310 Ry

     total magnetization       =     0.00 Bohr mag/cell
     absolute magnetization    =     0.38 Bohr mag/cell

     iteration # 22     ecut=    70.00 Ry     beta= 0.70
     Davidson diagonalization with overlap
     ethr =  6.93E-05,  avg # of iterations =  2.0

     negative rho (up, down):  1.235E-02 8.582E-02

     total cpu time spent up to now is     2946.3 secs

     total energy              =    -951.87229762 Ry
     Harris-Foulkes estimate   =    -951.87451175 Ry
     estimated scf accuracy    <       0.09183290 Ry

     total magnetization       =    -0.00 Bohr mag/cell
     absolute magnetization    =     0.32 Bohr mag/cell

     iteration # 23     ecut=    70.00 Ry     beta= 0.70
     Davidson diagonalization with overlap
     ethr =  4.25E-05,  avg # of iterations =  2.0

     negative rho (up, down):  5.929E-03 1.225E-01

     total cpu time spent up to now is     3065.5 secs

     total energy              =    -951.87381970 Ry
     Harris-Foulkes estimate   =    -951.87515587 Ry
     estimated scf accuracy    <       0.03956438 Ry

     total magnetization       =    -0.14 Bohr mag/cell
     absolute magnetization    =     0.39 Bohr mag/cell

     iteration # 24     ecut=    70.00 Ry     beta= 0.70
     Davidson diagonalization with overlap
     ethr =  1.83E-05,  avg # of iterations =  2.5

     negative rho (up, down):  2.535E-03 1.129E-01

     total cpu time spent up to now is     3184.8 secs

     total energy              =    -951.87840213 Ry
     Harris-Foulkes estimate   =    -951.87560760 Ry
     estimated scf accuracy    <       0.03142250 Ry

     total magnetization       =    -0.16 Bohr mag/cell
     absolute magnetization    =     0.39 Bohr mag/cell

     iteration # 25     ecut=    70.00 Ry     beta= 0.70
     Davidson diagonalization with overlap
     ethr =  1.45E-05,  avg # of iterations =  4.0

     negative rho (up, down):  5.449E-03 2.183E-01

     total cpu time spent up to now is     3310.2 secs

     total energy              =    -951.87460819 Ry
     Harris-Foulkes estimate   =    -951.88044318 Ry
     estimated scf accuracy    <       0.20746741 Ry

     total magnetization       =    -0.00 Bohr mag/cell
     absolute magnetization    =     0.71 Bohr mag/cell

     iteration # 26     ecut=    70.00 Ry     beta= 0.70
     Davidson diagonalization with overlap
     ethr =  1.45E-05,  avg # of iterations =  2.5

     negative rho (up, down):  7.990E-03 7.063E-02

     total cpu time spent up to now is     3436.7 secs

     total energy              =    -951.87730269 Ry
     Harris-Foulkes estimate   =    -951.87707617 Ry
     estimated scf accuracy    <       0.10667091 Ry

     total magnetization       =    -0.00 Bohr mag/cell
     absolute magnetization    =     0.33 Bohr mag/cell

     iteration # 27     ecut=    70.00 Ry     beta= 0.70
     Davidson diagonalization with overlap
     ethr =  1.45E-05,  avg # of iterations =  2.0

     negative rho (up, down):  9.951E-03 3.716E-02

     total cpu time spent up to now is     3558.7 secs

     total energy              =    -951.87631105 Ry
     Harris-Foulkes estimate   =    -951.87795348 Ry
     estimated scf accuracy    <       0.15000091 Ry

     total magnetization       =    -0.00 Bohr mag/cell
     absolute magnetization    =     0.29 Bohr mag/cell

     iteration # 28     ecut=    70.00 Ry     beta= 0.70
     Davidson diagonalization with overlap
     ethr =  1.45E-05,  avg # of iterations =  2.5

     negative rho (up, down):  8.776E-03 6.759E-02

     total cpu time spent up to now is     3677.6 secs

     total energy              =    -951.87669496 Ry
     Harris-Foulkes estimate   =    -951.87668218 Ry
     estimated scf accuracy    <       0.10184436 Ry

     total magnetization       =    -0.00 Bohr mag/cell
     absolute magnetization    =     0.34 Bohr mag/cell

     iteration # 29     ecut=    70.00 Ry     beta= 0.70
     Davidson diagonalization with overlap
     ethr =  1.45E-05,  avg # of iterations =  1.5

     negative rho (up, down):  9.188E-03 8.525E-02

     total cpu time spent up to now is     3791.2 secs

     total energy              =    -951.87622049 Ry
     Harris-Foulkes estimate   =    -951.87706973 Ry
     estimated scf accuracy    <       0.12427660 Ry

     total magnetization       =    -0.00 Bohr mag/cell
     absolute magnetization    =     0.33 Bohr mag/cell

     iteration # 30     ecut=    70.00 Ry     beta= 0.70
     Davidson diagonalization with overlap
     ethr =  1.45E-05,  avg # of iterations =  1.0

     negative rho (up, down):  7.866E-03 9.991E-02

     total cpu time spent up to now is     3904.1 secs

     total energy              =    -951.87508734 Ry
     Harris-Foulkes estimate   =    -951.87628544 Ry
     estimated scf accuracy    <       0.09381029 Ry

     total magnetization       =    -0.00 Bohr mag/cell
     absolute magnetization    =     0.32 Bohr mag/cell

     iteration # 31     ecut=    70.00 Ry     beta= 0.70
     Davidson diagonalization with overlap
     ethr =  1.45E-05,  avg # of iterations =  2.0

     negative rho (up, down):  5.446E-03 5.555E-02

     total cpu time spent up to now is     4018.3 secs

     total energy              =    -951.87578893 Ry
     Harris-Foulkes estimate   =    -951.87551265 Ry
     estimated scf accuracy    <       0.04218588 Ry

     total magnetization       =    -0.00 Bohr mag/cell
     absolute magnetization    =     0.17 Bohr mag/cell

     iteration # 32     ecut=    70.00 Ry     beta= 0.70
     Davidson diagonalization with overlap
     ethr =  1.45E-05,  avg # of iterations =  1.0

     negative rho (up, down):  3.517E-03 3.234E-02

     total cpu time spent up to now is     4126.6 secs

     total energy              =    -951.87658391 Ry
     Harris-Foulkes estimate   =    -951.87602665 Ry
     estimated scf accuracy    <       0.01439909 Ry

     total magnetization       =     0.00 Bohr mag/cell
     absolute magnetization    =     0.12 Bohr mag/cell

     iteration # 33     ecut=    70.00 Ry     beta= 0.70
     Davidson diagonalization with overlap
     ethr =  6.67E-06,  avg # of iterations =  3.5

     negative rho (up, down):  2.777E-03 2.748E-02

     total cpu time spent up to now is     4246.9 secs

     total energy              =    -951.87684619 Ry
     Harris-Foulkes estimate   =    -951.87664842 Ry
     estimated scf accuracy    <       0.01082957 Ry

     total magnetization       =    -0.00 Bohr mag/cell
     absolute magnetization    =     0.09 Bohr mag/cell

     iteration # 34     ecut=    70.00 Ry     beta= 0.70
     Davidson diagonalization with overlap
     ethr =  5.01E-06,  avg # of iterations =  1.0

     negative rho (up, down):  2.167E-03 2.090E-02

     total cpu time spent up to now is     4366.7 secs

     total energy              =    -951.87726390 Ry
     Harris-Foulkes estimate   =    -951.87688090 Ry
     estimated scf accuracy    <       0.00919137 Ry

     total magnetization       =     0.00 Bohr mag/cell
     absolute magnetization    =     0.07 Bohr mag/cell

     iteration # 35     ecut=    70.00 Ry     beta= 0.70
     Davidson diagonalization with overlap
     ethr =  4.26E-06,  avg # of iterations =  1.5

     negative rho (up, down):  2.841E-03 6.362E-03

     total cpu time spent up to now is     4487.7 secs

     total energy              =    -951.87719470 Ry
     Harris-Foulkes estimate   =    -951.87733850 Ry
     estimated scf accuracy    <       0.01450581 Ry

     total magnetization       =    -0.00 Bohr mag/cell
     absolute magnetization    =     0.03 Bohr mag/cell

     iteration # 36     ecut=    70.00 Ry     beta= 0.70
     Davidson diagonalization with overlap
     ethr =  4.26E-06,  avg # of iterations =  1.0

     negative rho (up, down):  3.287E-03 4.694E-03

     total cpu time spent up to now is     4607.1 secs

     total energy              =    -951.87709814 Ry
     Harris-Foulkes estimate   =    -951.87720747 Ry
     estimated scf accuracy    <       0.01673951 Ry

     total magnetization       =     0.00 Bohr mag/cell
     absolute magnetization    =     0.04 Bohr mag/cell

     iteration # 37     ecut=    70.00 Ry     beta= 0.70
     Davidson diagonalization with overlap
     ethr =  4.26E-06,  avg # of iterations =  3.0

     negative rho (up, down):  3.909E-03 3.901E-03

     total cpu time spent up to now is     4726.8 secs

     total energy              =    -951.87668163 Ry
     Harris-Foulkes estimate   =    -951.87710345 Ry
     estimated scf accuracy    <       0.01781012 Ry

     total magnetization       =     0.00 Bohr mag/cell
     absolute magnetization    =     0.03 Bohr mag/cell

     iteration # 38     ecut=    70.00 Ry     beta= 0.70
     Davidson diagonalization with overlap
     ethr =  4.26E-06,  avg # of iterations =  1.0

     negative rho (up, down):  3.309E-03 1.648E-02

     total cpu time spent up to now is     4847.6 secs

     total energy              =    -951.87670252 Ry
     Harris-Foulkes estimate   =    -951.87656844 Ry
     estimated scf accuracy    <       0.01192369 Ry

     total magnetization       =    -0.10 Bohr mag/cell
     absolute magnetization    =     0.14 Bohr mag/cell

     iteration # 39     ecut=    70.00 Ry     beta= 0.70
     Davidson diagonalization with overlap
     ethr =  4.26E-06,  avg # of iterations =  1.0

     negative rho (up, down):  3.432E-03 2.111E-02

     total cpu time spent up to now is     4966.4 secs

     total energy              =    -951.87670005 Ry
     Harris-Foulkes estimate   =    -951.87690070 Ry
     estimated scf accuracy    <       0.01192344 Ry

     total magnetization       =    -0.00 Bohr mag/cell
     absolute magnetization    =     0.06 Bohr mag/cell

     iteration # 40     ecut=    70.00 Ry     beta= 0.70
     Davidson diagonalization with overlap
     ethr =  4.26E-06,  avg # of iterations =  1.0

     negative rho (up, down):  3.271E-03 2.681E-02

     total cpu time spent up to now is     5085.7 secs

     total energy              =    -951.87679470 Ry
     Harris-Foulkes estimate   =    -951.87673163 Ry
     estimated scf accuracy    <       0.00986926 Ry

     total magnetization       =    -0.00 Bohr mag/cell
     absolute magnetization    =     0.06 Bohr mag/cell

     iteration # 41     ecut=    70.00 Ry     beta= 0.70
     Davidson diagonalization with overlap
     ethr =  4.26E-06,  avg # of iterations =  2.0

     negative rho (up, down):  3.589E-03 7.976E-02

     total cpu time spent up to now is     5202.6 secs

     total energy              =    -951.87672194 Ry
     Harris-Foulkes estimate   =    -951.87688824 Ry
     estimated scf accuracy    <       0.01859722 Ry

     total magnetization       =     0.00 Bohr mag/cell
     absolute magnetization    =     0.15 Bohr mag/cell

     iteration # 42     ecut=    70.00 Ry     beta= 0.70
     Davidson diagonalization with overlap
     ethr =  4.26E-06,  avg # of iterations =  2.0

     negative rho (up, down):  6.338E-03 3.716E-02

     total cpu time spent up to now is     5323.2 secs

     total energy              =    -951.87945935 Ry
     Harris-Foulkes estimate   =    -951.87683094 Ry
     estimated scf accuracy    <       0.02716184 Ry

     total magnetization       =     0.00 Bohr mag/cell
     absolute magnetization    =     0.07 Bohr mag/cell

     iteration # 43     ecut=    70.00 Ry     beta= 0.70
     Davidson diagonalization with overlap
     ethr =  4.26E-06,  avg # of iterations =  3.0

     negative rho (up, down):  1.097E-02 8.318E-03

     total cpu time spent up to now is     5464.1 secs

     total energy              =    -951.87343624 Ry
     Harris-Foulkes estimate   =    -951.88271314 Ry
     estimated scf accuracy    <       0.34309160 Ry

     total magnetization       =    -0.07 Bohr mag/cell
     absolute magnetization    =     0.11 Bohr mag/cell

     iteration # 44     ecut=    70.00 Ry     beta= 0.70
     Davidson diagonalization with overlap
     ethr =  4.26E-06,  avg # of iterations =  6.0

     negative rho (up, down):  7.709E-03 1.512E-02

     total cpu time spent up to now is     5600.3 secs

     total energy              =    -951.87574963 Ry
     Harris-Foulkes estimate   =    -951.87579763 Ry
     estimated scf accuracy    <       0.03791294 Ry

     total magnetization       =    -0.00 Bohr mag/cell
     absolute magnetization    =     0.07 Bohr mag/cell

     iteration # 45     ecut=    70.00 Ry     beta= 0.70
     Davidson diagonalization with overlap
     ethr =  4.26E-06,  avg # of iterations =  3.5

     negative rho (up, down):  6.023E-03 1.814E-02

     total cpu time spent up to now is     5723.3 secs

     total energy              =    -951.87584670 Ry
     Harris-Foulkes estimate   =    -951.87576924 Ry
     estimated scf accuracy    <       0.01737130 Ry

     total magnetization       =    -0.04 Bohr mag/cell
     absolute magnetization    =     0.09 Bohr mag/cell

     iteration # 46     ecut=    70.00 Ry     beta= 0.70
     Davidson diagonalization with overlap
     ethr =  4.26E-06,  avg # of iterations =  2.5

     negative rho (up, down):  1.103E-02 1.317E-02

     total cpu time spent up to now is     5845.1 secs

     total energy              =    -951.87955164 Ry
     Harris-Foulkes estimate   =    -951.87595248 Ry
     estimated scf accuracy    <       0.01604476 Ry

     total magnetization       =    -0.09 Bohr mag/cell
     absolute magnetization    =     0.14 Bohr mag/cell

     iteration # 47     ecut=    70.00 Ry     beta= 0.70
     Davidson diagonalization with overlap
     ethr =  4.26E-06,  avg # of iterations =  3.0

     negative rho (up, down):  2.203E-02 3.937E-03

     total cpu time spent up to now is     5982.2 secs

     total energy              =    -951.87520138 Ry
     Harris-Foulkes estimate   =    -951.88819429 Ry
     estimated scf accuracy    <       0.69961683 Ry

     total magnetization       =    -0.15 Bohr mag/cell
     absolute magnetization    =     0.19 Bohr mag/cell

     iteration # 48     ecut=    70.00 Ry     beta= 0.70
     Davidson diagonalization with overlap
     ethr =  4.26E-06,  avg # of iterations =  6.5

     negative rho (up, down):  1.881E-02 4.148E-03

     total cpu time spent up to now is     6122.1 secs

     total energy              =    -951.87724322 Ry
     Harris-Foulkes estimate   =    -951.87711855 Ry
     estimated scf accuracy    <       0.25513738 Ry

     total magnetization       =    -0.00 Bohr mag/cell
     absolute magnetization    =     0.07 Bohr mag/cell

     iteration # 49     ecut=    70.00 Ry     beta= 0.70
     Davidson diagonalization with overlap
     ethr =  4.26E-06,  avg # of iterations =  1.0

     negative rho (up, down):  1.740E-02 3.047E-03

     total cpu time spent up to now is     6235.3 secs

     total energy              =    -951.87927271 Ry
     Harris-Foulkes estimate   =    -951.87726808 Ry
     estimated scf accuracy    <       0.22593160 Ry

     total magnetization       =     0.00 Bohr mag/cell
     absolute magnetization    =     0.06 Bohr mag/cell

     iteration # 50     ecut=    70.00 Ry     beta= 0.70
     Davidson diagonalization with overlap
     ethr =  4.26E-06,  avg # of iterations =  2.0

     negative rho (up, down):  1.855E-02 1.931E-03

     total cpu time spent up to now is     6350.9 secs

     total energy              =    -951.87737308 Ry
     Harris-Foulkes estimate   =    -951.87940798 Ry
     estimated scf accuracy    <       0.31149156 Ry

     total magnetization       =    -0.00 Bohr mag/cell
     absolute magnetization    =     0.05 Bohr mag/cell

     iteration # 51     ecut=    70.00 Ry     beta= 0.70
     Davidson diagonalization with overlap
     ethr =  4.26E-06,  avg # of iterations =  2.0

     negative rho (up, down):  1.693E-02 1.454E-02

     total cpu time spent up to now is     6458.9 secs

     total energy              =    -951.87625407 Ry
     Harris-Foulkes estimate   =    -951.87748994 Ry
     estimated scf accuracy    <       0.24050102 Ry

     total magnetization       =    -0.00 Bohr mag/cell
     absolute magnetization    =     0.08 Bohr mag/cell

     iteration # 52     ecut=    70.00 Ry     beta= 0.70
     Davidson diagonalization with overlap
     ethr =  4.26E-06,  avg # of iterations =  2.0

     negative rho (up, down):  1.439E-02 9.019E-03

     total cpu time spent up to now is     6575.4 secs

     total energy              =    -951.87653898 Ry
     Harris-Foulkes estimate   =    -951.87638807 Ry
     estimated scf accuracy    <       0.16838397 Ry

     total magnetization       =     0.00 Bohr mag/cell
     absolute magnetization    =     0.05 Bohr mag/cell

     iteration # 53     ecut=    70.00 Ry     beta= 0.70
     Davidson diagonalization with overlap
     ethr =  4.26E-06,  avg # of iterations =  1.0

     negative rho (up, down):  1.130E-02 3.912E-03

     total cpu time spent up to now is     6682.0 secs

     total energy              =    -951.87377974 Ry
     Harris-Foulkes estimate   =    -951.87656080 Ry
     estimated scf accuracy    <       0.14526628 Ry

     total magnetization       =     0.00 Bohr mag/cell
     absolute magnetization    =     0.04 Bohr mag/cell

     iteration # 54     ecut=    70.00 Ry     beta= 0.70
     Davidson diagonalization with overlap
     ethr =  4.26E-06,  avg # of iterations =  5.0

     negative rho (up, down):  5.462E-03 1.319E-02

     total cpu time spent up to now is     6800.0 secs

     total energy              =    -951.87610342 Ry
     Harris-Foulkes estimate   =    -951.87481100 Ry
     estimated scf accuracy    <       0.02192056 Ry

     total magnetization       =    -0.00 Bohr mag/cell
     absolute magnetization    =     0.06 Bohr mag/cell

     iteration # 55     ecut=    70.00 Ry     beta= 0.70
     Davidson diagonalization with overlap
     ethr =  4.26E-06,  avg # of iterations =  6.5

     negative rho (up, down):  3.400E-03 2.797E-02

     total cpu time spent up to now is     6912.7 secs

     total energy              =    -951.87642523 Ry
     Harris-Foulkes estimate   =    -951.87599655 Ry
     estimated scf accuracy    <       0.01443024 Ry

     total magnetization       =     0.16 Bohr mag/cell
     absolute magnetization    =     0.23 Bohr mag/cell

     iteration # 56     ecut=    70.00 Ry     beta= 0.70
     Davidson diagonalization with overlap
     ethr =  4.26E-06,  avg # of iterations =  3.0

     negative rho (up, down):  3.238E-03 1.935E-02

     total cpu time spent up to now is     7021.9 secs

     total energy              =    -951.87676778 Ry
     Harris-Foulkes estimate   =    -951.87664370 Ry
     estimated scf accuracy    <       0.01032452 Ry

     total magnetization       =     0.00 Bohr mag/cell
     absolute magnetization    =     0.04 Bohr mag/cell

     iteration # 57     ecut=    70.00 Ry     beta= 0.70
     Davidson diagonalization with overlap
     ethr =  4.26E-06,  avg # of iterations =  1.0

     negative rho (up, down):  3.301E-03 2.279E-02

     total cpu time spent up to now is     7127.6 secs

     total energy              =    -951.87670583 Ry
     Harris-Foulkes estimate   =    -951.87679777 Ry
     estimated scf accuracy    <       0.01714688 Ry

     total magnetization       =    -0.00 Bohr mag/cell
     absolute magnetization    =     0.07 Bohr mag/cell

     iteration # 58     ecut=    70.00 Ry     beta= 0.70
     Davidson diagonalization with overlap
     ethr =  4.26E-06,  avg # of iterations =  1.0

     negative rho (up, down):  3.112E-03 2.098E-02

     total cpu time spent up to now is     7233.7 secs

     total energy              =    -951.87657494 Ry
     Harris-Foulkes estimate   =    -951.87672083 Ry
     estimated scf accuracy    <       0.01570810 Ry

     total magnetization       =     0.00 Bohr mag/cell
     absolute magnetization    =     0.08 Bohr mag/cell

     iteration # 59     ecut=    70.00 Ry     beta= 0.70
     Davidson diagonalization with overlap
     ethr =  4.26E-06,  avg # of iterations =  1.0

     negative rho (up, down):  2.572E-03 9.516E-03

     total cpu time spent up to now is     7339.3 secs

     total energy              =    -951.87681132 Ry
     Harris-Foulkes estimate   =    -951.87661261 Ry
     estimated scf accuracy    <       0.01220814 Ry

     total magnetization       =     0.00 Bohr mag/cell
     absolute magnetization    =     0.10 Bohr mag/cell

     iteration # 60     ecut=    70.00 Ry     beta= 0.70
     Davidson diagonalization with overlap
     ethr =  4.26E-06,  avg # of iterations =  3.5

     negative rho (up, down):  2.504E-03 1.285E-02

     total cpu time spent up to now is     7446.4 secs

     total energy              =    -951.87698599 Ry
     Harris-Foulkes estimate   =    -951.87677278 Ry
     estimated scf accuracy    <       0.01163066 Ry

     total magnetization       =    -0.00 Bohr mag/cell
     absolute magnetization    =     0.13 Bohr mag/cell

     iteration # 61     ecut=    70.00 Ry     beta= 0.70
     Davidson diagonalization with overlap
     ethr =  4.26E-06,  avg # of iterations =  1.0

     negative rho (up, down):  3.073E-03 1.515E-02

     total cpu time spent up to now is     7552.1 secs

     total energy              =    -951.87684042 Ry
     Harris-Foulkes estimate   =    -951.87710996 Ry
     estimated scf accuracy    <       0.01329131 Ry

     total magnetization       =     0.00 Bohr mag/cell
     absolute magnetization    =     0.08 Bohr mag/cell

     iteration # 62     ecut=    70.00 Ry     beta= 0.70
     Davidson diagonalization with overlap
     ethr =  4.26E-06,  avg # of iterations =  1.0

     negative rho (up, down):  3.118E-03 2.566E-02

     total cpu time spent up to now is     7657.9 secs

     total energy              =    -951.87687346 Ry
     Harris-Foulkes estimate   =    -951.87676919 Ry
     estimated scf accuracy    <       0.01191564 Ry

     total magnetization       =    -0.00 Bohr mag/cell
     absolute magnetization    =     0.10 Bohr mag/cell

     iteration # 63     ecut=    70.00 Ry     beta= 0.70
     Davidson diagonalization with overlap
     ethr =  4.26E-06,  avg # of iterations =  2.0

     negative rho (up, down):  3.879E-03 7.128E-02

     total cpu time spent up to now is     7763.7 secs

     total energy              =    -951.87664206 Ry
     Harris-Foulkes estimate   =    -951.87727797 Ry
     estimated scf accuracy    <       0.01968547 Ry

     total magnetization       =     0.00 Bohr mag/cell
     absolute magnetization    =     0.17 Bohr mag/cell

     iteration # 64     ecut=    70.00 Ry     beta= 0.70
     Davidson diagonalization with overlap
     ethr =  4.26E-06,  avg # of iterations =  2.0

     negative rho (up, down):  7.566E-03 7.314E-02

     total cpu time spent up to now is     7869.2 secs

     total energy              =    -951.88120277 Ry
     Harris-Foulkes estimate   =    -951.87693242 Ry
     estimated scf accuracy    <       0.03390826 Ry

     total magnetization       =     0.00 Bohr mag/cell
     absolute magnetization    =     0.17 Bohr mag/cell

     iteration # 65     ecut=    70.00 Ry     beta= 0.70
     Davidson diagonalization with overlap
     ethr =  4.26E-06,  avg # of iterations =  4.0

     negative rho (up, down):  1.637E-02 3.786E-02

     total cpu time spent up to now is     7996.2 secs

     total energy              =    -951.87088577 Ry
     Harris-Foulkes estimate   =    -951.88961587 Ry
     estimated scf accuracy    <       0.67996192 Ry

     total magnetization       =    -0.06 Bohr mag/cell
     absolute magnetization    =     0.17 Bohr mag/cell

     iteration # 66     ecut=    70.00 Ry     beta= 0.70
     Davidson diagonalization with overlap
     ethr =  4.26E-06,  avg # of iterations =  6.0

     negative rho (up, down):  8.439E-03 2.276E-02

     total cpu time spent up to now is     8122.7 secs

     total energy              =    -951.88409450 Ry
     Harris-Foulkes estimate   =    -951.87544667 Ry
     estimated scf accuracy    <       0.07622379 Ry

     total magnetization       =     0.00 Bohr mag/cell
     absolute magnetization    =     0.07 Bohr mag/cell

     iteration # 67     ecut=    70.00 Ry     beta= 0.70
     Davidson diagonalization with overlap
     ethr =  4.26E-06,  avg # of iterations =  5.5

     negative rho (up, down):  2.646E-02 4.587E-03

     total cpu time spent up to now is     8251.6 secs

     total energy              =    -951.86350792 Ry
     Harris-Foulkes estimate   =    -951.89213062 Ry
     estimated scf accuracy    <       0.64299596 Ry

     total magnetization       =    -0.04 Bohr mag/cell
     absolute magnetization    =     0.08 Bohr mag/cell

     iteration # 68     ecut=    70.00 Ry     beta= 0.70
     Davidson diagonalization with overlap
     ethr =  4.26E-06,  avg # of iterations =  6.0

     negative rho (up, down):  1.275E-02 5.878E-03

     total cpu time spent up to now is     8382.3 secs

     total energy              =    -951.87646980 Ry
     Harris-Foulkes estimate   =    -951.87260975 Ry
     estimated scf accuracy    <       0.06510174 Ry

     total magnetization       =    -0.00 Bohr mag/cell
     absolute magnetization    =     0.08 Bohr mag/cell

     iteration # 69     ecut=    70.00 Ry     beta= 0.70
     Davidson diagonalization with overlap
     ethr =  4.26E-06,  avg # of iterations =  8.0

     negative rho (up, down):  1.128E-02 3.960E-03

     total cpu time spent up to now is     8494.8 secs

     total energy              =    -951.87389720 Ry
     Harris-Foulkes estimate   =    -951.87653341 Ry
     estimated scf accuracy    <       0.07874565 Ry

     total magnetization       =     0.00 Bohr mag/cell
     absolute magnetization    =     0.05 Bohr mag/cell

     iteration # 70     ecut=    70.00 Ry     beta= 0.70
     Davidson diagonalization with overlap
     ethr =  4.26E-06,  avg # of iterations =  2.0

     negative rho (up, down):  6.232E-03 9.217E-03

     total cpu time spent up to now is     8607.4 secs

     total energy              =    -951.87592618 Ry
     Harris-Foulkes estimate   =    -951.87494931 Ry
     estimated scf accuracy    <       0.01369826 Ry

     total magnetization       =     0.00 Bohr mag/cell
     absolute magnetization    =     0.06 Bohr mag/cell

     iteration # 71     ecut=    70.00 Ry     beta= 0.70
     Davidson diagonalization with overlap
     ethr =  4.26E-06,  avg # of iterations =  6.0

     negative rho (up, down):  3.826E-03 6.270E-03

     total cpu time spent up to now is     8718.5 secs

     total energy              =    -951.87644807 Ry
     Harris-Foulkes estimate   =    -951.87583249 Ry
     estimated scf accuracy    <       0.01259452 Ry

     total magnetization       =    -0.04 Bohr mag/cell
     absolute magnetization    =     0.06 Bohr mag/cell

     iteration # 72     ecut=    70.00 Ry     beta= 0.70
     Davidson diagonalization with overlap
     ethr =  4.26E-06,  avg # of iterations =  3.0

     negative rho (up, down):  3.111E-03 1.336E-02

     total cpu time spent up to now is     8825.6 secs

     total energy              =    -951.87682823 Ry
     Harris-Foulkes estimate   =    -951.87661491 Ry
     estimated scf accuracy    <       0.01141072 Ry

     total magnetization       =     0.00 Bohr mag/cell
     absolute magnetization    =     0.04 Bohr mag/cell

     iteration # 73     ecut=    70.00 Ry     beta= 0.70
     Davidson diagonalization with overlap
     ethr =  4.26E-06,  avg # of iterations =  2.5

     negative rho (up, down):  3.013E-03 1.817E-02

     total cpu time spent up to now is     8931.1 secs

     total energy              =    -951.87684661 Ry
     Harris-Foulkes estimate   =    -951.87682991 Ry
     estimated scf accuracy    <       0.01127670 Ry

     total magnetization       =     0.00 Bohr mag/cell
     absolute magnetization    =     0.04 Bohr mag/cell

     iteration # 74     ecut=    70.00 Ry     beta= 0.70
     Davidson diagonalization with overlap
     ethr =  4.26E-06,  avg # of iterations =  1.0

     negative rho (up, down):  3.141E-03 1.640E-02

     total cpu time spent up to now is     9036.3 secs

     total energy              =    -951.87681630 Ry
     Harris-Foulkes estimate   =    -951.87684827 Ry
     estimated scf accuracy    <       0.01126104 Ry

     total magnetization       =     0.00 Bohr mag/cell
     absolute magnetization    =     0.04 Bohr mag/cell

     iteration # 75     ecut=    70.00 Ry     beta= 0.70
     Davidson diagonalization with overlap
     ethr =  4.26E-06,  avg # of iterations =  1.0

     negative rho (up, down):  3.843E-03 8.215E-03

     total cpu time spent up to now is     9141.3 secs

     total energy              =    -951.87697592 Ry
     Harris-Foulkes estimate   =    -951.87682011 Ry
     estimated scf accuracy    <       0.01308114 Ry

     total magnetization       =    -0.00 Bohr mag/cell
     absolute magnetization    =     0.03 Bohr mag/cell

     iteration # 76     ecut=    70.00 Ry     beta= 0.70
     Davidson diagonalization with overlap
     ethr =  4.26E-06,  avg # of iterations =  2.0

     negative rho (up, down):  4.995E-03 2.398E-03

     total cpu time spent up to now is     9246.4 secs

     total energy              =    -951.87665083 Ry
     Harris-Foulkes estimate   =    -951.87707387 Ry
     estimated scf accuracy    <       0.03835442 Ry

     total magnetization       =     0.00 Bohr mag/cell
     absolute magnetization    =     0.01 Bohr mag/cell

     iteration # 77     ecut=    70.00 Ry     beta= 0.70
     Davidson diagonalization with overlap
     ethr =  4.26E-06,  avg # of iterations =  2.5

     negative rho (up, down):  6.574E-03 2.126E-03

     total cpu time spent up to now is     9352.5 secs

     total energy              =    -951.87861250 Ry
     Harris-Foulkes estimate   =    -951.87649801 Ry
     estimated scf accuracy    <       0.03182513 Ry

     total magnetization       =    -0.06 Bohr mag/cell
     absolute magnetization    =     0.07 Bohr mag/cell

     iteration # 78     ecut=    70.00 Ry     beta= 0.70
     Davidson diagonalization with overlap
     ethr =  4.26E-06,  avg # of iterations =  2.5

     negative rho (up, down):  1.121E-02 7.986E-04

     total cpu time spent up to now is     9468.8 secs

     total energy              =    -951.87259618 Ry
     Harris-Foulkes estimate   =    -951.88033063 Ry
     estimated scf accuracy    <       0.23515075 Ry

     total magnetization       =     0.01 Bohr mag/cell
     absolute magnetization    =     0.01 Bohr mag/cell

     iteration # 79     ecut=    70.00 Ry     beta= 0.70
     Davidson diagonalization with overlap
     ethr =  4.26E-06,  avg # of iterations =  5.5

     negative rho (up, down):  5.509E-03 2.127E-03

     total cpu time spent up to now is     9591.8 secs

     total energy              =    -951.87621041 Ry
     Harris-Foulkes estimate   =    -951.87493208 Ry
     estimated scf accuracy    <       0.01766770 Ry

     total magnetization       =    -0.00 Bohr mag/cell
     absolute magnetization    =     0.02 Bohr mag/cell

     iteration # 80     ecut=    70.00 Ry     beta= 0.70
     Davidson diagonalization with overlap
     ethr =  4.26E-06,  avg # of iterations =  6.0

     negative rho (up, down):  3.753E-03 9.169E-03

     total cpu time spent up to now is     9702.8 secs

     total energy              =    -951.87646687 Ry
     Harris-Foulkes estimate   =    -951.87609091 Ry
     estimated scf accuracy    <       0.01488290 Ry

     total magnetization       =    -0.16 Bohr mag/cell
     absolute magnetization    =     0.19 Bohr mag/cell

     iteration # 81     ecut=    70.00 Ry     beta= 0.70
     Davidson diagonalization with overlap
     ethr =  4.26E-06,  avg # of iterations =  2.5

     negative rho (up, down):  3.200E-03 6.107E-03

     total cpu time spent up to now is     9810.5 secs

     total energy              =    -951.87680712 Ry
     Harris-Foulkes estimate   =    -951.87663669 Ry
     estimated scf accuracy    <       0.01173515 Ry

     total magnetization       =     0.00 Bohr mag/cell
     absolute magnetization    =     0.02 Bohr mag/cell

     iteration # 82     ecut=    70.00 Ry     beta= 0.70
     Davidson diagonalization with overlap
     ethr =  4.26E-06,  avg # of iterations =  1.0

     negative rho (up, down):  3.169E-03 9.094E-03

     total cpu time spent up to now is     9915.4 secs

     total energy              =    -951.87682757 Ry
     Harris-Foulkes estimate   =    -951.87681048 Ry
     estimated scf accuracy    <       0.01238022 Ry

     total magnetization       =    -0.00 Bohr mag/cell
     absolute magnetization    =     0.03 Bohr mag/cell

     iteration # 83     ecut=    70.00 Ry     beta= 0.70
     Davidson diagonalization with overlap
     ethr =  4.26E-06,  avg # of iterations =  1.0

     negative rho (up, down):  3.195E-03 6.248E-03

     total cpu time spent up to now is    10020.3 secs

     total energy              =    -951.87683633 Ry
     Harris-Foulkes estimate   =    -951.87682972 Ry
     estimated scf accuracy    <       0.01340654 Ry

     total magnetization       =     0.00 Bohr mag/cell
     absolute magnetization    =     0.01 Bohr mag/cell

     iteration # 84     ecut=    70.00 Ry     beta= 0.70
     Davidson diagonalization with overlap
     ethr =  4.26E-06,  avg # of iterations =  1.0

     negative rho (up, down):  3.118E-03 8.439E-03

     total cpu time spent up to now is    10124.8 secs

     total energy              =    -951.87684321 Ry
     Harris-Foulkes estimate   =    -951.87683852 Ry
     estimated scf accuracy    <       0.01423284 Ry

     total magnetization       =     0.00 Bohr mag/cell
     absolute magnetization    =     0.02 Bohr mag/cell

     iteration # 85     ecut=    70.00 Ry     beta= 0.70
     Davidson diagonalization with overlap
     ethr =  4.26E-06,  avg # of iterations =  1.0

     negative rho (up, down):  2.789E-03 2.545E-02

     total cpu time spent up to now is    10229.5 secs

     total energy              =    -951.87689897 Ry
     Harris-Foulkes estimate   =    -951.87684953 Ry
     estimated scf accuracy    <       0.01326408 Ry

     total magnetization       =     0.00 Bohr mag/cell
     absolute magnetization    =     0.05 Bohr mag/cell

     iteration # 86     ecut=    70.00 Ry     beta= 0.70
     Davidson diagonalization with overlap
     ethr =  4.26E-06,  avg # of iterations =  1.0

     negative rho (up, down):  2.445E-03 1.045E-02

     total cpu time spent up to now is    10334.2 secs

     total energy              =    -951.87711091 Ry
     Harris-Foulkes estimate   =    -951.87691390 Ry
     estimated scf accuracy    <       0.01010864 Ry

     total magnetization       =     0.00 Bohr mag/cell
     absolute magnetization    =     0.01 Bohr mag/cell

     iteration # 87     ecut=    70.00 Ry     beta= 0.70
     Davidson diagonalization with overlap
     ethr =  4.26E-06,  avg # of iterations =  1.0

     negative rho (up, down):  1.223E-03 7.241E-03

     total cpu time spent up to now is    10439.1 secs

     total energy              =    -951.87890726 Ry
     Harris-Foulkes estimate   =    -951.87712623 Ry
     estimated scf accuracy    <       0.01123135 Ry

     total magnetization       =    -0.00 Bohr mag/cell
     absolute magnetization    =     0.01 Bohr mag/cell

     iteration # 88     ecut=    70.00 Ry     beta= 0.70
     Davidson diagonalization with overlap
     ethr =  4.26E-06,  avg # of iterations =  5.0

     negative rho (up, down):  2.303E-02 5.676E-03

     total cpu time spent up to now is    10564.9 secs

     total energy              =    -951.87848927 Ry
     Harris-Foulkes estimate   =    -951.88761238 Ry
     estimated scf accuracy    <       0.37962764 Ry

     total magnetization       =    -0.00 Bohr mag/cell
     absolute magnetization    =     0.11 Bohr mag/cell

     iteration # 89     ecut=    70.00 Ry     beta= 0.70
     Davidson diagonalization with overlap
     ethr =  4.26E-06,  avg # of iterations =  8.0

     negative rho (up, down):  1.869E-02 1.786E-03

     total cpu time spent up to now is    10689.5 secs

     total energy              =    -951.86860723 Ry
     Harris-Foulkes estimate   =    -951.88040048 Ry
     estimated scf accuracy    <       0.42375269 Ry

     total magnetization       =     0.00 Bohr mag/cell
     absolute magnetization    =     0.05 Bohr mag/cell

     iteration # 90     ecut=    70.00 Ry     beta= 0.70
     Davidson diagonalization with overlap
     ethr =  4.26E-06,  avg # of iterations =  3.0

     negative rho (up, down):  8.318E-03 6.016E-03

     total cpu time spent up to now is    10809.2 secs

     total energy              =    -951.87541665 Ry
     Harris-Foulkes estimate   =    -951.87321309 Ry
     estimated scf accuracy    <       0.01431567 Ry

     total magnetization       =    -0.00 Bohr mag/cell
     absolute magnetization    =     0.03 Bohr mag/cell

     iteration # 91     ecut=    70.00 Ry     beta= 0.70
     Davidson diagonalization with overlap
     ethr =  4.26E-06,  avg # of iterations =  7.0

     negative rho (up, down):  4.962E-03 6.436E-03

     total cpu time spent up to now is    10921.0 secs

     total energy              =    -951.87625742 Ry
     Harris-Foulkes estimate   =    -951.87533416 Ry
     estimated scf accuracy    <       0.01367819 Ry

     total magnetization       =     0.01 Bohr mag/cell
     absolute magnetization    =     0.02 Bohr mag/cell

     iteration # 92     ecut=    70.00 Ry     beta= 0.70
     Davidson diagonalization with overlap
     ethr =  4.26E-06,  avg # of iterations =  3.0

     negative rho (up, down):  2.273E-03 9.731E-03

     total cpu time spent up to now is    11031.6 secs

     total energy              =    -951.87751242 Ry
     Harris-Foulkes estimate   =    -951.87627620 Ry
     estimated scf accuracy    <       0.02162540 Ry

     total magnetization       =     0.04 Bohr mag/cell
     absolute magnetization    =     0.06 Bohr mag/cell

     iteration # 93     ecut=    70.00 Ry     beta= 0.70
     Davidson diagonalization with overlap
     ethr =  4.26E-06,  avg # of iterations =  5.5

     negative rho (up, down):  5.906E-03 6.237E-03

     total cpu time spent up to now is    11151.1 secs

     total energy              =    -951.87628023 Ry
     Harris-Foulkes estimate   =    -951.87845426 Ry
     estimated scf accuracy    <       0.05378922 Ry

     total magnetization       =     0.00 Bohr mag/cell
     absolute magnetization    =     0.04 Bohr mag/cell

     iteration # 94     ecut=    70.00 Ry     beta= 0.70
     Davidson diagonalization with overlap
     ethr =  4.26E-06,  avg # of iterations =  6.0

     negative rho (up, down):  5.493E-03 4.937E-03

     total cpu time spent up to now is    11263.3 secs

     total energy              =    -951.87590723 Ry
     Harris-Foulkes estimate   =    -951.87638828 Ry
     estimated scf accuracy    <       0.02218501 Ry

     total magnetization       =    -0.13 Bohr mag/cell
     absolute magnetization    =     0.14 Bohr mag/cell

     iteration # 95     ecut=    70.00 Ry     beta= 0.70
     Davidson diagonalization with overlap
     ethr =  4.26E-06,  avg # of iterations =  2.0

     negative rho (up, down):  3.414E-03 1.104E-02

     total cpu time spent up to now is    11369.2 secs

     total energy              =    -951.87662059 Ry
     Harris-Foulkes estimate   =    -951.87606052 Ry
     estimated scf accuracy    <       0.01037458 Ry

     total magnetization       =    -0.12 Bohr mag/cell
     absolute magnetization    =     0.14 Bohr mag/cell

     iteration # 96     ecut=    70.00 Ry     beta= 0.70
     Davidson diagonalization with overlap
     ethr =  4.26E-06,  avg # of iterations =  3.0

     negative rho (up, down):  6.313E-03 8.527E-03

     total cpu time spent up to now is    11477.5 secs

     total energy              =    -951.87946173 Ry
     Harris-Foulkes estimate   =    -951.87677765 Ry
     estimated scf accuracy    <       0.01056520 Ry

     total magnetization       =     0.00 Bohr mag/cell
     absolute magnetization    =     0.03 Bohr mag/cell

     iteration # 97     ecut=    70.00 Ry     beta= 0.70
     Davidson diagonalization with overlap
     ethr =  4.26E-06,  avg # of iterations =  3.0

     negative rho (up, down):  1.717E-02 6.572E-03

     total cpu time spent up to now is    11601.4 secs

     total energy              =    -951.87708585 Ry
     Harris-Foulkes estimate   =    -951.88438431 Ry
     estimated scf accuracy    <       0.41997358 Ry

     total magnetization       =     0.15 Bohr mag/cell
     absolute magnetization    =     0.18 Bohr mag/cell

     iteration # 98     ecut=    70.00 Ry     beta= 0.70
     Davidson diagonalization with overlap
     ethr =  4.26E-06,  avg # of iterations =  7.0

     negative rho (up, down):  2.005E-02 8.128E-03

     total cpu time spent up to now is    11718.1 secs

     total energy              =    -951.88954391 Ry
     Harris-Foulkes estimate   =    -951.87775899 Ry
     estimated scf accuracy    <       0.23340297 Ry

     total magnetization       =     0.00 Bohr mag/cell
     absolute magnetization    =     0.05 Bohr mag/cell

     iteration # 99     ecut=    70.00 Ry     beta= 0.70
     Davidson diagonalization with overlap
     ethr =  4.26E-06,  avg # of iterations =  3.0

     negative rho (up, down):  3.553E-02 5.259E-03

     total cpu time spent up to now is    11839.1 secs

     total energy              =    -951.88682828 Ry
     Harris-Foulkes estimate   =    -951.89574437 Ry
     estimated scf accuracy    <       1.08189029 Ry

     total magnetization       =     0.00 Bohr mag/cell
     absolute magnetization    =     0.07 Bohr mag/cell

     iteration #100     ecut=    70.00 Ry     beta= 0.70
     Davidson diagonalization with overlap
     ethr =  4.26E-06,  avg # of iterations =  6.0

     negative rho (up, down):  3.803E-02 4.996E-03

     Magnetic moment per site:
     atom:    1    charge:    0.2113    magn:   -0.0000    constr:    0.0000
     atom:    2    charge:    0.2110    magn:    0.0000    constr:    0.0000
     atom:    3    charge:    1.7154    magn:    0.0008    constr:    0.0000
     atom:    4    charge:    1.7152    magn:   -0.0002    constr:    0.0000
     atom:    5    charge:    1.7168    magn:    0.0011    constr:    0.0000
     atom:    6    charge:    1.7146    magn:    0.0002    constr:    0.0000
     atom:    7    charge:    1.7168    magn:    0.0011    constr:    0.0000
     atom:    8    charge:    1.7153    magn:   -0.0002    constr:    0.0000
     atom:    9    charge:    1.7155    magn:    0.0009    constr:    0.0000
     atom:   10    charge:    1.7176    magn:   -0.0001    constr:    0.0000
     atom:   11    charge:    1.7155    magn:    0.0002    constr:    0.0000
     atom:   12    charge:    1.7176    magn:   -0.0001    constr:    0.0000
     atom:   13    charge:    1.7155    magn:    0.0002    constr:    0.0000
     atom:   14    charge:    1.7175    magn:    0.0003    constr:    0.0000
     atom:   15    charge:    1.7117    magn:    0.0000    constr:    0.0000
     atom:   16    charge:    1.7114    magn:    0.0001    constr:    0.0000
     atom:   17    charge:    1.7206    magn:    0.0026    constr:    0.0000
     atom:   18    charge:    1.7115    magn:    0.0001    constr:    0.0000
     atom:   19    charge:    1.7118    magn:    0.0000    constr:    0.0000
     atom:   20    charge:    1.7176    magn:    0.0003    constr:    0.0000
     atom:   21    charge:    1.7155    magn:    0.0002    constr:    0.0000
     atom:   22    charge:    1.7176    magn:   -0.0001    constr:    0.0000
     atom:   23    charge:    1.7155    magn:    0.0009    constr:    0.0000
     atom:   24    charge:    1.7153    magn:   -0.0002    constr:    0.0000
     atom:   25    charge:    1.7117    magn:    0.0000    constr:    0.0000
     atom:   26    charge:    1.7113    magn:    0.0001    constr:    0.0000
     atom:   27    charge:    1.8193    magn:    0.0018    constr:    0.0000
     atom:   28    charge:   13.3956    magn:   -0.0003    constr:    0.0000
     atom:   29    charge:    1.8176    magn:    0.0018    constr:    0.0000
     atom:   30    charge:    1.7115    magn:    0.0001    constr:    0.0000
     atom:   31    charge:    1.7118    magn:    0.0000    constr:    0.0000
     atom:   32    charge:    1.7153    magn:   -0.0002    constr:    0.0000
     atom:   33    charge:    1.7168    magn:    0.0011    constr:    0.0000
     atom:   34    charge:    1.7155    magn:   -0.0003    constr:    0.0000
     atom:   35    charge:    1.7169    magn:    0.0011    constr:    0.0000
     atom:   36    charge:    1.7146    magn:    0.0002    constr:    0.0000
     atom:   37    charge:    1.7207    magn:    0.0025    constr:    0.0000
     atom:   38    charge:    1.7113    magn:    0.0001    constr:    0.0000
     atom:   39    charge:    1.8193    magn:    0.0018    constr:    0.0000
     atom:   40    charge:    1.7114    magn:    0.0001    constr:    0.0000
     atom:   41    charge:    1.7206    magn:    0.0026    constr:    0.0000
     atom:   42    charge:    1.7146    magn:    0.0002    constr:    0.0000
     atom:   43    charge:    1.7168    magn:    0.0011    constr:    0.0000
     atom:   44    charge:    1.7154    magn:   -0.0003    constr:    0.0000
     atom:   45    charge:    1.7213    magn:    0.0049    constr:    0.0000
     atom:   46    charge:    1.7155    magn:   -0.0003    constr:    0.0000
     atom:   47    charge:    1.7169    magn:    0.0011    constr:    0.0000
     atom:   48    charge:    1.7153    magn:   -0.0002    constr:    0.0000
     atom:   49    charge:    1.7117    magn:    0.0000    constr:    0.0000
     atom:   50    charge:    1.7175    magn:    0.0003    constr:    0.0000
     atom:   51    charge:    1.7117    magn:    0.0000    constr:    0.0000
     atom:   52    charge:    1.7152    magn:   -0.0002    constr:    0.0000

     total cpu time spent up to now is    11951.7 secs

     total energy              =    -951.89035749 Ry
     Harris-Foulkes estimate   =    -951.88705870 Ry
     estimated scf accuracy    <       0.88209913 Ry

     total magnetization       =    -0.00 Bohr mag/cell
     absolute magnetization    =     0.07 Bohr mag/cell

     iteration #101     ecut=    70.00 Ry     beta= 0.70
     Davidson diagonalization with overlap
     ethr =  4.26E-06,  avg # of iterations =  2.0

     negative rho (up, down):  3.157E-02 5.501E-03

     total cpu time spent up to now is    12057.3 secs

     total energy              =    -951.86333362 Ry
     Harris-Foulkes estimate   =    -951.89054613 Ry
     estimated scf accuracy    <       1.06851804 Ry

     total magnetization       =     0.00 Bohr mag/cell
     absolute magnetization    =     0.06 Bohr mag/cell

     iteration #102     ecut=    70.00 Ry     beta= 0.70
     Davidson diagonalization with overlap
     ethr =  4.26E-06,  avg # of iterations =  4.0

     negative rho (up, down):  1.484E-02 6.722E-03

     total cpu time spent up to now is    12180.2 secs

     total energy              =    -951.87744679 Ry
     Harris-Foulkes estimate   =    -951.87171935 Ry
     estimated scf accuracy    <       0.08609224 Ry

     total magnetization       =     0.00 Bohr mag/cell
     absolute magnetization    =     0.06 Bohr mag/cell

     iteration #103     ecut=    70.00 Ry     beta= 0.70
     Davidson diagonalization with overlap
     ethr =  4.26E-06,  avg # of iterations =  7.5

     negative rho (up, down):  1.598E-02 9.070E-03

     total cpu time spent up to now is    12293.6 secs

     total energy              =    -951.87074024 Ry
     Harris-Foulkes estimate   =    -951.87768984 Ry
     estimated scf accuracy    <       0.14311050 Ry

     total magnetization       =     0.00 Bohr mag/cell
     absolute magnetization    =     0.07 Bohr mag/cell

     iteration #104     ecut=    70.00 Ry     beta= 0.70
     Davidson diagonalization with overlap
     ethr =  4.26E-06,  avg # of iterations =  2.0

     negative rho (up, down):  3.237E-03 4.051E-02

     total cpu time spent up to now is    12411.5 secs

     total energy              =    -951.87788620 Ry
     Harris-Foulkes estimate   =    -951.87367515 Ry
     estimated scf accuracy    <       0.01275181 Ry

     total magnetization       =     0.00 Bohr mag/cell
     absolute magnetization    =     0.09 Bohr mag/cell

     iteration #105     ecut=    70.00 Ry     beta= 0.70
     Davidson diagonalization with overlap
     ethr =  4.26E-06,  avg # of iterations =  7.0

     negative rho (up, down):  2.036E-02 2.150E-02

     total cpu time spent up to now is    12544.4 secs

     total energy              =    -951.86253010 Ry
     Harris-Foulkes estimate   =    -951.88761226 Ry
     estimated scf accuracy    <       0.41393577 Ry

     total magnetization       =    -0.00 Bohr mag/cell
     absolute magnetization    =     0.12 Bohr mag/cell

     iteration #106     ecut=    70.00 Ry     beta= 0.70
     Davidson diagonalization with overlap
     ethr =  4.26E-06,  avg # of iterations =  8.0

     negative rho (up, down):  7.583E-03 5.121E-02

     total cpu time spent up to now is    12678.6 secs

     total energy              =    -951.87553200 Ry
     Harris-Foulkes estimate   =    -951.87244266 Ry
     estimated scf accuracy    <       0.01611308 Ry

     total magnetization       =     0.00 Bohr mag/cell
     absolute magnetization    =     0.13 Bohr mag/cell

     iteration #107     ecut=    70.00 Ry     beta= 0.70
     Davidson diagonalization with overlap
     ethr =  4.26E-06,  avg # of iterations =  8.0

     negative rho (up, down):  1.945E-03 1.122E-01

     total cpu time spent up to now is    12790.6 secs

     total energy              =    -951.87747856 Ry
     Harris-Foulkes estimate   =    -951.87541756 Ry
     estimated scf accuracy    <       0.01951039 Ry

     total magnetization       =    -0.04 Bohr mag/cell
     absolute magnetization    =     0.17 Bohr mag/cell

     iteration #108     ecut=    70.00 Ry     beta= 0.70
     Davidson diagonalization with overlap
     ethr =  4.26E-06,  avg # of iterations =  6.0

     negative rho (up, down):  1.460E-02 2.967E-02

     total cpu time spent up to now is    12915.9 secs

     total energy              =    -951.87601003 Ry
     Harris-Foulkes estimate   =    -951.88109829 Ry
     estimated scf accuracy    <       0.15790514 Ry

     total magnetization       =     0.00 Bohr mag/cell
     absolute magnetization    =     0.09 Bohr mag/cell

     iteration #109     ecut=    70.00 Ry     beta= 0.70
     Davidson diagonalization with overlap
     ethr =  4.26E-06,  avg # of iterations =  7.0

     negative rho (up, down):  1.309E-02 2.097E-02

     total cpu time spent up to now is    13037.2 secs

     total energy              =    -951.87459021 Ry
     Harris-Foulkes estimate   =    -951.87698555 Ry
     estimated scf accuracy    <       0.17411796 Ry

     total magnetization       =     0.00 Bohr mag/cell
     absolute magnetization    =     0.07 Bohr mag/cell

     iteration #110     ecut=    70.00 Ry     beta= 0.70
     Davidson diagonalization with overlap
     ethr =  4.26E-06,  avg # of iterations =  2.0

     negative rho (up, down):  1.999E-02 1.378E-02

     total cpu time spent up to now is    13147.1 secs

     total energy              =    -951.88442714 Ry
     Harris-Foulkes estimate   =    -951.87518628 Ry
     estimated scf accuracy    <       0.06323644 Ry

     total magnetization       =    -0.00 Bohr mag/cell
     absolute magnetization    =     0.08 Bohr mag/cell

[...]
     ethr =  1.08E-06,  avg # of iterations =  5.5

     negative rho (up, down):  3.422E-02 5.325E-03

     total cpu time spent up to now is    24028.0 secs

     total energy              =    -951.88044408 Ry
     Harris-Foulkes estimate   =    -951.89799477 Ry
     estimated scf accuracy    <       0.88279484 Ry

     total magnetization       =    -0.00 Bohr mag/cell
     absolute magnetization    =     0.07 Bohr mag/cell

     iteration #204     ecut=    70.00 Ry     beta= 0.70
     Davidson diagonalization with overlap
     ethr =  1.08E-06,  avg # of iterations =  3.0

     negative rho (up, down):  1.990E-02 3.203E-03

     total cpu time spent up to now is    24153.6 secs

     total energy              =    -951.87771868 Ry
     Harris-Foulkes estimate   =    -951.88459654 Ry
     estimated scf accuracy    <       0.23532992 Ry

     total magnetization       =     0.00 Bohr mag/cell
     absolute magnetization    =     0.05 Bohr mag/cell

     iteration #205     ecut=    70.00 Ry     beta= 0.70
     Davidson diagonalization with overlap
     ethr =  1.08E-06,  avg # of iterations =  7.0

     negative rho (up, down):  2.922E-03 2.253E-02

     total cpu time spent up to now is    24289.7 secs

     total energy              =    -951.88889407 Ry
     Harris-Foulkes estimate   =    -951.88380264 Ry
     estimated scf accuracy    <       0.00447405 Ry

     total magnetization       =     0.00 Bohr mag/cell
     absolute magnetization    =     0.06 Bohr mag/cell

     iteration #206     ecut=    70.00 Ry     beta= 0.70
     Davidson diagonalization with overlap
     ethr =  1.08E-06,  avg # of iterations =  8.5

     negative rho (up, down):  5.586E-03 1.188E-02

     total cpu time spent up to now is    24425.2 secs

     total energy              =    -951.88519689 Ry
     Harris-Foulkes estimate   =    -951.89084616 Ry
     estimated scf accuracy    <       0.12813591 Ry

     total magnetization       =    -0.00 Bohr mag/cell
     absolute magnetization    =     0.04 Bohr mag/cell

     iteration #207     ecut=    70.00 Ry     beta= 0.70
     Davidson diagonalization with overlap
     ethr =  1.08E-06,  avg # of iterations =  5.0

     negative rho (up, down):  2.251E-03 1.738E-02

     total cpu time spent up to now is    24553.0 secs

     total energy              =    -951.88811710 Ry
     Harris-Foulkes estimate   =    -951.88721198 Ry
     estimated scf accuracy    <       0.00119565 Ry

     total magnetization       =     0.05 Bohr mag/cell
     absolute magnetization    =     0.07 Bohr mag/cell

     iteration #208     ecut=    70.00 Ry     beta= 0.70
     Davidson diagonalization with overlap
     ethr =  5.54E-07,  avg # of iterations =  6.0

     negative rho (up, down):  1.547E-03 2.808E-02

     total cpu time spent up to now is    24663.8 secs

     total energy              =    -951.88845306 Ry
     Harris-Foulkes estimate   =    -951.88828279 Ry
     estimated scf accuracy    <       0.00187332 Ry

     total magnetization       =    -0.00 Bohr mag/cell
     absolute magnetization    =     0.04 Bohr mag/cell

     iteration #209     ecut=    70.00 Ry     beta= 0.70
     Davidson diagonalization with overlap
     ethr =  5.54E-07,  avg # of iterations =  2.5

     negative rho (up, down):  1.126E-03 7.500E-02

     total cpu time spent up to now is    24772.4 secs

     total energy              =    -951.88853416 Ry
     Harris-Foulkes estimate   =    -951.88849889 Ry
     estimated scf accuracy    <       0.00214266 Ry

     total magnetization       =    -0.00 Bohr mag/cell
     absolute magnetization    =     0.09 Bohr mag/cell

     iteration #210     ecut=    70.00 Ry     beta= 0.70
     Davidson diagonalization with overlap
     ethr =  5.54E-07,  avg # of iterations =  3.0

     negative rho (up, down):  1.116E-03 3.576E-02

     total cpu time spent up to now is    24883.7 secs

     total energy              =    -951.88862608 Ry
     Harris-Foulkes estimate   =    -951.88856694 Ry
     estimated scf accuracy    <       0.00044534 Ry

     total magnetization       =     0.00 Bohr mag/cell
     absolute magnetization    =     0.03 Bohr mag/cell

     iteration #211     ecut=    70.00 Ry     beta= 0.70
     Davidson diagonalization with overlap
     ethr =  2.06E-07,  avg # of iterations =  2.0

     negative rho (up, down):  1.109E-03 1.262E-02

     total cpu time spent up to now is    24990.8 secs

     total energy              =    -951.88866179 Ry
     Harris-Foulkes estimate   =    -951.88863887 Ry
     estimated scf accuracy    <       0.00005436 Ry

     total magnetization       =    -0.00 Bohr mag/cell
     absolute magnetization    =     0.02 Bohr mag/cell

     iteration #212     ecut=    70.00 Ry     beta= 0.70
     Davidson diagonalization with overlap
     ethr =  2.52E-08,  avg # of iterations =  2.5

     negative rho (up, down):  1.102E-03 2.202E-02

     total cpu time spent up to now is    25099.6 secs

     total energy              =    -951.88865292 Ry
     Harris-Foulkes estimate   =    -951.88866446 Ry
     estimated scf accuracy    <       0.00023852 Ry

     total magnetization       =    -0.00 Bohr mag/cell
     absolute magnetization    =     0.03 Bohr mag/cell

     iteration #213     ecut=    70.00 Ry     beta= 0.70
     Davidson diagonalization with overlap
     ethr =  2.52E-08,  avg # of iterations =  2.0

     negative rho (up, down):  1.105E-03 1.408E-02

     total cpu time spent up to now is    25207.8 secs

     total energy              =    -951.88865902 Ry
     Harris-Foulkes estimate   =    -951.88865587 Ry
     estimated scf accuracy    <       0.00003578 Ry

     total magnetization       =     0.00 Bohr mag/cell
     absolute magnetization    =     0.02 Bohr mag/cell

     iteration #214     ecut=    70.00 Ry     beta= 0.70
     Davidson diagonalization with overlap
     ethr =  1.66E-08,  avg # of iterations =  2.0

     negative rho (up, down):  1.108E-03 5.076E-03

     total cpu time spent up to now is    25313.5 secs

     total energy              =    -951.88866242 Ry
     Harris-Foulkes estimate   =    -951.88866014 Ry
     estimated scf accuracy    <       0.00000222 Ry

     total magnetization       =     0.00 Bohr mag/cell
     absolute magnetization    =     0.01 Bohr mag/cell

     iteration #215     ecut=    70.00 Ry     beta= 0.70
     Davidson diagonalization with overlap
     ethr =  1.03E-09,  avg # of iterations =  2.0

     negative rho (up, down):  1.109E-03 3.718E-03

     total cpu time spent up to now is    25424.9 secs

     total energy              =    -951.88866257 Ry
     Harris-Foulkes estimate   =    -951.88866285 Ry
     estimated scf accuracy    <       0.00000463 Ry

     total magnetization       =     0.00 Bohr mag/cell
     absolute magnetization    =     0.01 Bohr mag/cell

     iteration #216     ecut=    70.00 Ry     beta= 0.70
     Davidson diagonalization with overlap
     ethr =  1.03E-09,  avg # of iterations =  3.0

     negative rho (up, down):  1.111E-03 6.219E-05

     Magnetic moment per site:
     atom:    1    charge:    0.2113    magn:   -0.0000    constr:    0.0000
     atom:    2    charge:    0.2110    magn:   -0.0000    constr:    0.0000
     atom:    3    charge:    1.7155    magn:    0.0001    constr:    0.0000
     atom:    4    charge:    1.7152    magn:   -0.0001    constr:    0.0000
     atom:    5    charge:    1.7168    magn:    0.0001    constr:    0.0000
     atom:    6    charge:    1.7146    magn:   -0.0001    constr:    0.0000
     atom:    7    charge:    1.7168    magn:    0.0001    constr:    0.0000
     atom:    8    charge:    1.7152    magn:   -0.0001    constr:    0.0000
     atom:    9    charge:    1.7155    magn:    0.0001    constr:    0.0000
     atom:   10    charge:    1.7176    magn:   -0.0001    constr:    0.0000
     atom:   11    charge:    1.7155    magn:    0.0001    constr:    0.0000
     atom:   12    charge:    1.7177    magn:   -0.0001    constr:    0.0000
     atom:   13    charge:    1.7155    magn:    0.0001    constr:    0.0000
     atom:   14    charge:    1.7175    magn:   -0.0000    constr:    0.0000
     atom:   15    charge:    1.7117    magn:    0.0001    constr:    0.0000
     atom:   16    charge:    1.7114    magn:   -0.0001    constr:    0.0000
     atom:   17    charge:    1.7206    magn:    0.0001    constr:    0.0000
     atom:   18    charge:    1.7114    magn:   -0.0001    constr:    0.0000
     atom:   19    charge:    1.7117    magn:    0.0001    constr:    0.0000
     atom:   20    charge:    1.7175    magn:   -0.0001    constr:    0.0000
     atom:   21    charge:    1.7155    magn:    0.0001    constr:    0.0000
     atom:   22    charge:    1.7176    magn:   -0.0001    constr:    0.0000
     atom:   23    charge:    1.7155    magn:    0.0001    constr:    0.0000
     atom:   24    charge:    1.7152    magn:   -0.0001    constr:    0.0000
     atom:   25    charge:    1.7117    magn:    0.0001    constr:    0.0000
     atom:   26    charge:    1.7114    magn:   -0.0001    constr:    0.0000
     atom:   27    charge:    1.8183    magn:    0.0001    constr:    0.0000
     atom:   28    charge:   13.4048    magn:   -0.0000    constr:    0.0000
     atom:   29    charge:    1.8182    magn:    0.0001    constr:    0.0000
     atom:   30    charge:    1.7114    magn:   -0.0001    constr:    0.0000
     atom:   31    charge:    1.7117    magn:    0.0001    constr:    0.0000
     atom:   32    charge:    1.7152    magn:   -0.0001    constr:    0.0000
     atom:   33    charge:    1.7168    magn:    0.0001    constr:    0.0000
     atom:   34    charge:    1.7154    magn:   -0.0002    constr:    0.0000
     atom:   35    charge:    1.7168    magn:    0.0001    constr:    0.0000
     atom:   36    charge:    1.7146    magn:   -0.0001    constr:    0.0000
     atom:   37    charge:    1.7206    magn:    0.0001    constr:    0.0000
     atom:   38    charge:    1.7114    magn:   -0.0001    constr:    0.0000
     atom:   39    charge:    1.8183    magn:    0.0001    constr:    0.0000
     atom:   40    charge:    1.7114    magn:   -0.0001    constr:    0.0000
     atom:   41    charge:    1.7206    magn:    0.0001    constr:    0.0000
     atom:   42    charge:    1.7146    magn:   -0.0001    constr:    0.0000
     atom:   43    charge:    1.7168    magn:    0.0001    constr:    0.0000
     atom:   44    charge:    1.7154    magn:   -0.0001    constr:    0.0000
     atom:   45    charge:    1.7212    magn:    0.0002    constr:    0.0000
     atom:   46    charge:    1.7154    magn:   -0.0002    constr:    0.0000
     atom:   47    charge:    1.7168    magn:    0.0001    constr:    0.0000
     atom:   48    charge:    1.7152    magn:   -0.0001    constr:    0.0000
     atom:   49    charge:    1.7117    magn:    0.0001    constr:    0.0000
     atom:   50    charge:    1.7175    magn:   -0.0000    constr:    0.0000
     atom:   51    charge:    1.7117    magn:    0.0001    constr:    0.0000
     atom:   52    charge:    1.7152    magn:   -0.0001    constr:    0.0000

     total cpu time spent up to now is    25536.7 secs

     End of self-consistent calculation

 ------ SPIN UP ------------


          k = 0.0000 0.0000 0.0000 ( 87777 PWs)   bands (ev):

  -107.9169 -69.0857 -69.0852 -67.0009 -19.8266 -19.0074 -19.0070 -18.8887
   -18.8882 -18.8034 -18.7363 -17.1635 -17.1629 -17.1282 -17.0801 -17.0787
   -16.7532 -16.3124 -16.3119 -16.1660 -16.1654 -16.1525 -15.6700 -14.3107
   -14.3102 -14.1501 -14.0164 -14.0159 -13.5147 -13.1286 -13.1283 -13.0769
   -12.9011 -12.9005 -12.5003 -12.0758 -12.0754 -11.7124 -11.5682 -11.5681
   -10.9341 -10.4316 -10.4314  -9.5771  -9.3659  -9.3654  -9.2263  -9.2114
    -9.2113  -9.1967  -8.9526  -8.9525  -8.5930  -8.5927  -8.4569  -7.9476
    -7.9018  -7.8517  -7.8455  -7.6641  -7.5416  -7.5412  -7.4482  -7.4480
    -6.8461  -6.8275  -6.8213  -6.7722  -6.7377  -6.6196  -6.6188  -6.5552
    -6.5501  -6.5501  -6.5168  -6.4677  -6.4244  -6.4130  -6.3679  -6.2890
    -6.2889  -5.5466  -5.5464  -5.0306  -4.9495  -4.8425  -4.8423  -4.7576
    -4.7160  -4.7159  -4.4266  -4.3982  -4.3980  -3.8363  -3.8360  -3.7646
    -3.7587  -3.7587  -3.7246  -3.4200  -3.4186  -3.3505  -1.8921  -1.8062
    -1.8056  -1.5912  -1.5892  -1.1592   0.1070   0.1077   0.9038   0.9614
     0.9635   1.2125   1.2128   1.5501   2.5039   2.8012   2.8034   2.8514
     3.0375   3.0402   3.4540   3.6070   3.6316   3.7348   3.7390   3.7637
     3.8960   4.1868

     occupation numbers 
     1.0000   1.0000   1.0000   1.0000   1.0000   1.0000   1.0000   1.0000
     1.0000   1.0000   1.0000   1.0000   1.0000   1.0000   1.0000   1.0000
     1.0000   1.0000   1.0000   1.0000   1.0000   1.0000   1.0000   1.0000
     1.0000   1.0000   1.0000   1.0000   1.0000   1.0000   1.0000   1.0000
     1.0000   1.0000   1.0000   1.0000   1.0000   1.0000   1.0000   1.0000
     1.0000   1.0000   1.0000   1.0000   1.0000   1.0000   1.0000   1.0000
     1.0000   1.0000   1.0000   1.0000   1.0000   1.0000   1.0000   1.0000
     1.0000   1.0000   1.0000   1.0000   1.0000   1.0000   1.0000   1.0000
     1.0000   1.0000   1.0000   1.0000   1.0000   1.0000   1.0000   1.0000
     1.0000   1.0000   1.0000   1.0000   1.0000   1.0000   1.0000   1.0000
     1.0000   1.0000   1.0000   1.0000   1.0000   1.0000   1.0000   1.0000
     1.0000   1.0000   1.0000   1.0000   1.0000   1.0000   1.0000   1.0000
     1.0000   1.0000   1.0000   1.0000   1.0000   1.0000   1.0000   1.0000
     1.0000   1.0000   1.0000   1.0000   0.0000   0.0000   0.0000   0.0000
     0.0000   0.0000   0.0000   0.0000   0.0000   0.0000   0.0000   0.0000
     0.0000   0.0000   0.0000   0.0000   0.0000   0.0000   0.0000   0.0000
     0.0000   0.0000

 ------ SPIN DOWN ----------


          k = 0.0000 0.0000 0.0000 ( 87777 PWs)   bands (ev):

  -107.9170 -69.0859 -69.0853 -67.0009 -19.8265 -19.0074 -19.0069 -18.8886
   -18.8882 -18.8033 -18.7362 -17.1634 -17.1628 -17.1283 -17.0800 -17.0786
   -16.7531 -16.3124 -16.3119 -16.1659 -16.1654 -16.1523 -15.6698 -14.3106
   -14.3101 -14.1501 -14.0164 -14.0159 -13.5140 -13.1286 -13.1284 -13.0768
   -12.9011 -12.9005 -12.5004 -12.0757 -12.0753 -11.7123 -11.5682 -11.5681
   -10.9340 -10.4316 -10.4314  -9.5772  -9.3659  -9.3653  -9.2263  -9.2114
    -9.2113  -9.1966  -8.9525  -8.9525  -8.5930  -8.5927  -8.4568  -7.9474
    -7.9018  -7.8514  -7.8451  -7.6640  -7.5416  -7.5411  -7.4482  -7.4479
    -6.8461  -6.8273  -6.8211  -6.7720  -6.7374  -6.6196  -6.6188  -6.5552
    -6.5501  -6.5501  -6.5168  -6.4676  -6.4243  -6.4129  -6.3679  -6.2890
    -6.2889  -5.5466  -5.5464  -5.0305  -4.9495  -4.8425  -4.8423  -4.7576
    -4.7157  -4.7156  -4.4262  -4.3981  -4.3979  -3.8361  -3.8359  -3.7641
    -3.7586  -3.7586  -3.7245  -3.4199  -3.4185  -3.3500  -1.8919  -1.8062
    -1.8057  -1.5912  -1.5892  -1.1576   0.1070   0.1080   0.9041   0.9614
     0.9636   1.2127   1.2129   1.5505   2.5036   2.8014   2.8037   2.8520
     3.0376   3.0403   3.4544   3.6067   3.6312   3.7345   3.7387   3.7640
     3.8957   4.1867

     occupation numbers 
     1.0000   1.0000   1.0000   1.0000   1.0000   1.0000   1.0000   1.0000
     1.0000   1.0000   1.0000   1.0000   1.0000   1.0000   1.0000   1.0000
     1.0000   1.0000   1.0000   1.0000   1.0000   1.0000   1.0000   1.0000
     1.0000   1.0000   1.0000   1.0000   1.0000   1.0000   1.0000   1.0000
     1.0000   1.0000   1.0000   1.0000   1.0000   1.0000   1.0000   1.0000
     1.0000   1.0000   1.0000   1.0000   1.0000   1.0000   1.0000   1.0000
     1.0000   1.0000   1.0000   1.0000   1.0000   1.0000   1.0000   1.0000
     1.0000   1.0000   1.0000   1.0000   1.0000   1.0000   1.0000   1.0000
     1.0000   1.0000   1.0000   1.0000   1.0000   1.0000   1.0000   1.0000
     1.0000   1.0000   1.0000   1.0000   1.0000   1.0000   1.0000   1.0000
     1.0000   1.0000   1.0000   1.0000   1.0000   1.0000   1.0000   1.0000
     1.0000   1.0000   1.0000   1.0000   1.0000   1.0000   1.0000   1.0000
     1.0000   1.0000   1.0000   1.0000   1.0000   1.0000   1.0000   1.0000
     1.0000   1.0000   1.0000   1.0000   0.0000   0.0000   0.0000   0.0000
     0.0000   0.0000   0.0000   0.0000   0.0000   0.0000   0.0000   0.0000
     0.0000   0.0000   0.0000   0.0000   0.0000   0.0000   0.0000   0.0000
     0.0000   0.0000

     the Fermi energy is    -1.0434 ev

!    total energy              =    -951.88866325 Ry
     Harris-Foulkes estimate   =    -951.88866293 Ry
     estimated scf accuracy    <       0.00000073 Ry

     The total energy is the sum of the following terms:

     one-electron contribution =   -2973.08549767 Ry
     hartree contribution      =    1529.18155776 Ry
     xc contribution           =    -265.71717118 Ry
     ewald contribution        =     757.73244784 Ry
     smearing contrib. (-TS)   =       0.00000000 Ry

     total magnetization       =    -0.00 Bohr mag/cell
     absolute magnetization    =     0.01 Bohr mag/cell

     convergence has been achieved in 216 iterations

     Writing output data file distance-3.0.save/

     init_run     :     97.15s CPU    100.69s WALL (       1 calls)
     electrons    :  25038.07s CPU  25435.00s WALL (       1 calls)

     Called by init_run:
     wfcinit      :     63.05s CPU     63.39s WALL (       1 calls)
     wfcinit:atom :      0.08s CPU      0.12s WALL (       2 calls)
     wfcinit:wfcr :     62.60s CPU     62.84s WALL (       2 calls)
     potinit      :     14.19s CPU     15.79s WALL (       1 calls)
     hinit0       :      7.69s CPU      7.84s WALL (       1 calls)

     Called by electrons:
     c_bands      :  16440.16s CPU  16511.42s WALL (     216 calls)
     sum_band     :   5193.02s CPU   5324.94s WALL (     216 calls)
     v_of_rho     :   1589.97s CPU   1671.09s WALL (     217 calls)
     v_h          :     17.83s CPU     18.32s WALL (     217 calls)
     v_xc         :   1572.14s CPU   1652.77s WALL (     217 calls)
     newd         :   1661.65s CPU   1774.38s WALL (     217 calls)
     mix_rho      :    119.23s CPU    120.82s WALL (     216 calls)

     Called by c_bands:
     init_us_2    :     52.07s CPU     52.17s WALL (     866 calls)
     cegterg      :  16326.92s CPU  16397.85s WALL (     432 calls)

     Called by sum_band:
     sum_band:bec :      0.35s CPU      0.36s WALL (     432 calls)
     addusdens    :   2978.85s CPU   3099.45s WALL (     216 calls)

     Called by *egterg:
     h_psi        :   8840.25s CPU   8889.41s WALL (    1946 calls)
     s_psi        :   3126.63s CPU   3127.62s WALL (    1946 calls)
     g_psi        :      7.73s CPU      7.74s WALL (    1512 calls)
     cdiaghg      :    144.95s CPU    144.99s WALL (    1944 calls)
     cegterg:over :   1717.37s CPU   1717.97s WALL (    1512 calls)
     cegterg:upda :   1054.93s CPU   1060.45s WALL (    1512 calls)
     cegterg:last :    774.66s CPU    774.87s WALL (     432 calls)

     Called by h_psi:
     h_psi:pot    :   8831.26s CPU   8871.46s WALL (    1946 calls)
     h_psi:calbec :   3085.34s CPU   3086.33s WALL (    1946 calls)
     vloc_psi     :   2600.15s CPU   2638.62s WALL (    1946 calls)
     add_vuspsi   :   3145.74s CPU   3146.50s WALL (    1946 calls)

     General routines
     calbec       :   4457.88s CPU   4459.29s WALL (    2378 calls)
     fft          :    919.54s CPU    951.23s WALL (   16269 calls)
     ffts         :     17.91s CPU     18.37s WALL (     866 calls)
     fftw         :   2763.20s CPU   2804.20s WALL (  308588 calls)
     interpolate  :     39.50s CPU     40.48s WALL (     434 calls)

     Parallel routines
     fft_scatt_xy :    697.66s CPU    703.97s WALL (  325723 calls)
     fft_scatt_yz :   1150.00s CPU   1203.37s WALL (  325723 calls)

     PWSCF        :      6h58m CPU      7h 5m WALL


   This run was terminated on:   1:19:50  30Dec2022            

=------------------------------------------------------------------------------=
   JOB DONE.
=------------------------------------------------------------------------------=
