
     Program PWSCF v.6.4.1 starts on 30Dec2022 at  3:12: 3 

     This program is part of the open-source Quantum ESPRESSO suite
     for quantum simulation of materials; please cite
         "P. Giannozzi et al., J. Phys.:Condens. Matter 21 395502 (2009);
         "P. Giannozzi et al., J. Phys.:Condens. Matter 29 465901 (2017);
          URL http://www.quantum-espresso.org", 
     in publications or presentations arising from this work. More details at
     http://www.quantum-espresso.org/quote

     Parallel version (MPI), running on     6 processors

     MPI processes distributed on     1 nodes
     R & G space division:  proc/nbgrp/npool/nimage =       6
     Reading input from distance-2.4.in

     Current dimensions of program PWSCF are:
     Max number of different atomic species (ntypx) = 10
     Max number of k-points (npk) =  40000
     Max angular momentum in pseudopotentials (lmaxx) =  3

     IMPORTANT: XC functional enforced from input :
     Exchange-correlation      = RVV10 ( 1  4 13  4 3 0)
     Any further DFT definition will be discarded
     Please, verify this is what you really want

               file H.pbe-rrkjus.UPF: wavefunction(s)  1S renormalized

     Subspace diagonalization in iterative solution of the eigenvalue problem:
     a serial algorithm will be used


     Parallelization info
     --------------------
     sticks:   dense  smooth     PW     G-vecs:    dense   smooth      PW
     Min        3051    1746    432               270999   117096   14629
     Max        3053    1747    437               271001   117099   14630
     Sum       18313   10477   2611              1626001   702581   87777



     bravais-lattice index     =            4
     lattice parameter (alat)  =      23.2937  a.u.
     unit-cell volume          =    8879.8548 (a.u.)^3
     number of atoms/cell      =           52
     number of atomic types    =            3
     number of electrons       =       216.00
     number of Kohn-Sham states=          130
     kinetic-energy cutoff     =      70.0000  Ry
     charge density cutoff     =     490.0000  Ry
     convergence threshold     =      1.0E-06
     mixing beta               =       0.7000
     number of iterations used =            8  plain     mixing
     Exchange-correlation      = RVV10 ( 1  4 13  4 3 0)

     celldm(1)=  23.293684  celldm(2)=   0.000000  celldm(3)=   0.811261
     celldm(4)=   0.000000  celldm(5)=   0.000000  celldm(6)=   0.000000

     crystal axes: (cart. coord. in units of alat)
               a(1) = (   1.000000   0.000000   0.000000 )  
               a(2) = (  -0.500000   0.866025   0.000000 )  
               a(3) = (   0.000000   0.000000   0.811261 )  

     reciprocal axes: (cart. coord. in units 2 pi/alat)
               b(1) = (  1.000000  0.577350 -0.000000 )  
               b(2) = (  0.000000  1.154701  0.000000 )  
               b(3) = (  0.000000 -0.000000  1.232649 )  


     PseudoPot. # 1 for H  read from file:
     /home/cristian/Escritorio/Proyecto_Grafeno/pseudopotenciales/H.pbe-rrkjus.UPF
     MD5 check sum: 7cc9d459525c9a0585f487a71c3c9563
     Pseudo is Ultrasoft, Zval =  1.0
     Generated by new atomic code, or converted to UPF format
     Using radial grid of 1061 points,  2 beta functions with: 
                l(1) =   0
                l(2) =   0
     Q(r) pseudized with 0 coefficients 


     PseudoPot. # 2 for C  read from file:
     /home/cristian/Escritorio/Proyecto_Grafeno/pseudopotenciales/C.pbe-n-rrkjus_psl.1.0.0.UPF
     MD5 check sum: 1fdd950c42eb37d8afe3dd2f8d12311e
     Pseudo is Ultrasoft + core correction, Zval =  4.0
     Generated using "atomic" code by A. Dal Corso v.6.3MaX
     Using radial grid of 1073 points,  4 beta functions with: 
                l(1) =   0
                l(2) =   0
                l(3) =   1
                l(4) =   1
     Q(r) pseudized with 0 coefficients 


     PseudoPot. # 3 for Ni read from file:
     /home/cristian/Escritorio/Proyecto_Grafeno/pseudopotenciales/Ni.pbe-spn-rrkjus_psl.1.0.0.UPF
     MD5 check sum: 8b3fc9aac6dafe35f580d41bb18c3945
     Pseudo is Ultrasoft + core correction, Zval = 18.0
     Generated using "atomic" code by A. Dal Corso v.6.3
     Using radial grid of 1195 points,  6 beta functions with: 
                l(1) =   0
                l(2) =   0
                l(3) =   1
                l(4) =   1
                l(5) =   2
                l(6) =   2
     Q(r) pseudized with 0 coefficients 


     vdW kernel table read from file rVV10_kernel_table
     MD5 check sum: b8e2538accc0c0b3206b45ba4daaba6c

     atomic species   valence    mass     pseudopotential
        H              1.00     1.00794     H ( 1.00)
        C              4.00    12.01070     C ( 1.00)
        Ni            18.00    58.69340     Ni( 1.00)

     Starting magnetic structure 
     atomic species   magnetization
        H            0.500
        C            0.300
        Ni           0.800

      2 Sym. Ops. (no inversion) found


                                    s                        frac. trans.

      isym =  1     identity                                     

 cryst.   s( 1) = (     1          0          0      )
                  (     0          1          0      )
                  (     0          0          1      )

 cart.    s( 1) = (  1.0000000  0.0000000  0.0000000 )
                  (  0.0000000  1.0000000  0.0000000 )
                  (  0.0000000  0.0000000  1.0000000 )


      isym =  2     inv. 180 deg rotation - cryst. axis [1,1,0]  

 cryst.   s( 2) = (     0         -1          0      )
                  (    -1          0          0      )
                  (     0          0          1      )

 cart.    s( 2) = (  0.5000000 -0.8660254  0.0000000 )
                  ( -0.8660254 -0.5000000  0.0000000 )
                  (  0.0000000  0.0000000  1.0000000 )


     point group C_s (m)    
     there are  2 classes
     the character table:

       E     s    
A'     1.00  1.00
A''    1.00 -1.00

     the symmetry operations in each class and the name of the first element:

     E        1
          identity                                               
     s        2
          inv. 180 deg rotation - cryst. axis [1,1,0]            

   Cartesian axes

     site n.     atom                  positions (alat units)
         1           H   tau(   1) = (   0.3000000   0.4041452   0.1947027  )
         2           H   tau(   2) = (   0.3000000   0.4041452   0.2557154  )
         3           C   tau(   3) = (   0.0000000   0.0000000   0.0000000  )
         4           C   tau(   4) = (   0.0000000   0.1154701   0.0000000  )
         5           C   tau(   5) = (  -0.1000000   0.1732051   0.0000000  )
         6           C   tau(   6) = (  -0.1000000   0.2886751   0.0000000  )
         7           C   tau(   7) = (  -0.2000000   0.3464102   0.0000000  )
         8           C   tau(   8) = (  -0.2000000   0.4618802   0.0000000  )
         9           C   tau(   9) = (  -0.3000000   0.5196152   0.0000000  )
        10           C   tau(  10) = (  -0.3000000   0.6350853   0.0000000  )
        11           C   tau(  11) = (  -0.4000000   0.6928203   0.0000000  )
        12           C   tau(  12) = (  -0.4000000   0.8082904   0.0000000  )
        13           C   tau(  13) = (   0.2000000   0.0000000   0.0000000  )
        14           C   tau(  14) = (   0.2000000   0.1154701   0.0000000  )
        15           C   tau(  15) = (   0.1000000   0.1732051   0.0000000  )
        16           C   tau(  16) = (   0.1000000   0.2886751   0.0000000  )
        17           C   tau(  17) = (   0.0000000   0.3464102   0.0000000  )
        18           C   tau(  18) = (   0.0000000   0.4618802   0.0000000  )
        19           C   tau(  19) = (  -0.1000000   0.5196152   0.0000000  )
        20           C   tau(  20) = (  -0.1000000   0.6350853   0.0000000  )
        21           C   tau(  21) = (  -0.2000000   0.6928203   0.0000000  )
        22           C   tau(  22) = (  -0.2000000   0.8082904   0.0000000  )
        23           C   tau(  23) = (   0.4000000   0.0000000   0.0000000  )
        24           C   tau(  24) = (   0.4000000   0.1154701   0.0000000  )
        25           C   tau(  25) = (   0.3000000   0.1732051   0.0000000  )
        26           C   tau(  26) = (   0.3000000   0.2886751   0.0000000  )
        27           C   tau(  27) = (   0.2000000   0.3464102   0.0000000  )
        28           Ni  tau(  28) = (   0.2000000   0.4618802   0.0000000  )
        29           C   tau(  29) = (   0.1000000   0.5196152   0.0000000  )
        30           C   tau(  30) = (   0.1000000   0.6350853   0.0000000  )
        31           C   tau(  31) = (   0.0000000   0.6928203   0.0000000  )
        32           C   tau(  32) = (   0.0000000   0.8082904   0.0000000  )
        33           C   tau(  33) = (   0.6000000   0.0000000   0.0000000  )
        34           C   tau(  34) = (   0.6000000   0.1154701   0.0000000  )
        35           C   tau(  35) = (   0.5000000   0.1732051   0.0000000  )
        36           C   tau(  36) = (   0.5000000   0.2886751   0.0000000  )
        37           C   tau(  37) = (   0.4000000   0.3464102   0.0000000  )
        38           C   tau(  38) = (   0.4000000   0.4618802   0.0000000  )
        39           C   tau(  39) = (   0.3000000   0.5196152   0.0000000  )
        40           C   tau(  40) = (   0.3000000   0.6350853   0.0000000  )
        41           C   tau(  41) = (   0.2000000   0.6928203   0.0000000  )
        42           C   tau(  42) = (   0.2000000   0.8082904   0.0000000  )
        43           C   tau(  43) = (   0.8000000   0.0000000   0.0000000  )
        44           C   tau(  44) = (   0.8000000   0.1154701   0.0000000  )
        45           C   tau(  45) = (   0.7000000   0.1732051   0.0000000  )
        46           C   tau(  46) = (   0.7000000   0.2886751   0.0000000  )
        47           C   tau(  47) = (   0.6000000   0.3464102   0.0000000  )
        48           C   tau(  48) = (   0.6000000   0.4618802   0.0000000  )
        49           C   tau(  49) = (   0.5000000   0.5196152   0.0000000  )
        50           C   tau(  50) = (   0.5000000   0.6350853   0.0000000  )
        51           C   tau(  51) = (   0.4000000   0.6928203   0.0000000  )
        52           C   tau(  52) = (   0.4000000   0.8082904   0.0000000  )

   Crystallographic axes

     site n.     atom                  positions (cryst. coord.)
         1           H   tau(   1) = (  0.5333333  0.4666667  0.2400000  )
         2           H   tau(   2) = (  0.5333333  0.4666667  0.3152072  )
         3           C   tau(   3) = (  0.0000000  0.0000000  0.0000000  )
         4           C   tau(   4) = (  0.0666667  0.1333333  0.0000000  )
         5           C   tau(   5) = (  0.0000000  0.2000000  0.0000000  )
         6           C   tau(   6) = (  0.0666667  0.3333333  0.0000000  )
         7           C   tau(   7) = (  0.0000000  0.4000000  0.0000000  )
         8           C   tau(   8) = (  0.0666667  0.5333333  0.0000000  )
         9           C   tau(   9) = (  0.0000000  0.6000000  0.0000000  )
        10           C   tau(  10) = (  0.0666667  0.7333333  0.0000000  )
        11           C   tau(  11) = (  0.0000000  0.8000000  0.0000000  )
        12           C   tau(  12) = (  0.0666667  0.9333333  0.0000000  )
        13           C   tau(  13) = (  0.2000000  0.0000000  0.0000000  )
        14           C   tau(  14) = (  0.2666667  0.1333333  0.0000000  )
        15           C   tau(  15) = (  0.2000000  0.2000000  0.0000000  )
        16           C   tau(  16) = (  0.2666667  0.3333333  0.0000000  )
        17           C   tau(  17) = (  0.2000000  0.4000000  0.0000000  )
        18           C   tau(  18) = (  0.2666667  0.5333333  0.0000000  )
        19           C   tau(  19) = (  0.2000000  0.6000000  0.0000000  )
        20           C   tau(  20) = (  0.2666667  0.7333333  0.0000000  )
        21           C   tau(  21) = (  0.2000000  0.8000000  0.0000000  )
        22           C   tau(  22) = (  0.2666667  0.9333333  0.0000000  )
        23           C   tau(  23) = (  0.4000000  0.0000000  0.0000000  )
        24           C   tau(  24) = (  0.4666667  0.1333333  0.0000000  )
        25           C   tau(  25) = (  0.4000000  0.2000000  0.0000000  )
        26           C   tau(  26) = (  0.4666667  0.3333333  0.0000000  )
        27           C   tau(  27) = (  0.4000000  0.4000000  0.0000000  )
        28           Ni  tau(  28) = (  0.4666667  0.5333333  0.0000000  )
        29           C   tau(  29) = (  0.4000000  0.6000000  0.0000000  )
        30           C   tau(  30) = (  0.4666667  0.7333333  0.0000000  )
        31           C   tau(  31) = (  0.4000000  0.8000000  0.0000000  )
        32           C   tau(  32) = (  0.4666667  0.9333333  0.0000000  )
        33           C   tau(  33) = (  0.6000000  0.0000000  0.0000000  )
        34           C   tau(  34) = (  0.6666667  0.1333333  0.0000000  )
        35           C   tau(  35) = (  0.6000000  0.2000000  0.0000000  )
        36           C   tau(  36) = (  0.6666667  0.3333333  0.0000000  )
        37           C   tau(  37) = (  0.6000000  0.4000000  0.0000000  )
        38           C   tau(  38) = (  0.6666667  0.5333333  0.0000000  )
        39           C   tau(  39) = (  0.6000000  0.6000000  0.0000000  )
        40           C   tau(  40) = (  0.6666667  0.7333333  0.0000000  )
        41           C   tau(  41) = (  0.6000000  0.8000000  0.0000000  )
        42           C   tau(  42) = (  0.6666667  0.9333333  0.0000000  )
        43           C   tau(  43) = (  0.8000000  0.0000000  0.0000000  )
        44           C   tau(  44) = (  0.8666667  0.1333333  0.0000000  )
        45           C   tau(  45) = (  0.8000000  0.2000000  0.0000000  )
        46           C   tau(  46) = (  0.8666667  0.3333333  0.0000000  )
        47           C   tau(  47) = (  0.8000000  0.4000000  0.0000000  )
        48           C   tau(  48) = (  0.8666667  0.5333333  0.0000000  )
        49           C   tau(  49) = (  0.8000000  0.6000000  0.0000000  )
        50           C   tau(  50) = (  0.8666667  0.7333333  0.0000000  )
        51           C   tau(  51) = (  0.8000000  0.8000000  0.0000000  )
        52           C   tau(  52) = (  0.8666667  0.9333333  0.0000000  )

     number of k points=     1  Marzari-Vanderbilt smearing, width (Ry)=  0.0010
                       cart. coord. in units 2pi/alat
        k(    1) = (   0.0000000   0.0000000   0.0000000), wk =   1.0000000

                       cryst. coord.
        k(    1) = (   0.0000000   0.0000000   0.0000000), wk =   1.0000000

     Dense  grid:  1626001 G-vectors     FFT dimensions: ( 180, 180, 135)

     Smooth grid:   702581 G-vectors     FFT dimensions: ( 125, 125, 108)

     Dynamical RAM for                 wfc:      29.03 MB

     Dynamical RAM for     wfc (w. buffer):      87.10 MB

     Dynamical RAM for           str. fact:      12.41 MB

     Dynamical RAM for           local pot:       0.00 MB

     Dynamical RAM for          nlocal pot:      92.46 MB

     Dynamical RAM for                qrad:      19.73 MB

     Dynamical RAM for          rho,v,vnew:      58.92 MB

     Dynamical RAM for               rhoin:      19.64 MB

     Dynamical RAM for            rho*nmix:     132.32 MB

     Dynamical RAM for           G-vectors:      16.40 MB

     Dynamical RAM for          h,s,v(r/c):      12.38 MB

     Dynamical RAM for          <psi|beta>:       0.82 MB

     Dynamical RAM for                 psi:     116.14 MB

     Dynamical RAM for                hpsi:     116.14 MB

     Dynamical RAM for                spsi:     116.14 MB

     Dynamical RAM for      wfcinit/wfcrot:      93.90 MB

     Dynamical RAM for           addusdens:     975.89 MB

     Estimated static dynamical RAM per process >     489.64 MB

     Estimated max dynamical RAM per process >       1.43 GB

     Estimated total dynamical RAM >       8.59 GB
     Generating pointlists ...
     new r_m :   0.0252 (alat units)  0.5862 (a.u.) for type    1
     new r_m :   0.0476 (alat units)  1.1095 (a.u.) for type    2
     new r_m :   0.0476 (alat units)  1.1095 (a.u.) for type    3

     Check: negative core charge=   -0.000002

     Initial potential from superposition of free atoms

     starting charge  215.80530, renormalised to  216.00000

     negative rho (up, down):  1.518E-04 1.636E-02


---------------------------------------------------------------------------------
Carrying out rVV10 run using the following parameters:
Nqs =      20    Nr_points =    1024   r_max =   100.000
b_value =  6.30000    beta =  0.00901
     q_mesh =  0.00010000  0.00030000  0.00058939  0.00100810
               0.00161396  0.00249058  0.00375900  0.00559430
               0.00824984  0.01209221  0.01765183  0.02569619
               0.03733578  0.05417739  0.07854596  0.11380545
               0.16482331  0.23864234  0.34545298  0.50000000

Gradients computed in Reciprocal space

---------------------------------------------------------------------------------


     Starting wfcs are  208 randomized atomic wfcs

     total cpu time spent up to now is       75.8 secs

     Self-consistent Calculation

     iteration #  1     ecut=    70.00 Ry     beta= 0.70
     Davidson diagonalization with overlap
     ethr =  1.00E-02,  avg # of iterations =  5.5

     negative rho (up, down):  2.968E-04 1.433E-02

     total cpu time spent up to now is      213.5 secs

     total energy              =    -946.71427984 Ry
     Harris-Foulkes estimate   =    -949.72796582 Ry
     estimated scf accuracy    <      14.15980689 Ry

     total magnetization       =     6.00 Bohr mag/cell
     absolute magnetization    =     6.76 Bohr mag/cell

     iteration #  2     ecut=    70.00 Ry     beta= 0.70
     Davidson diagonalization with overlap
     ethr =  6.56E-03,  avg # of iterations =  5.0

     negative rho (up, down):  5.298E-03 2.240E-01

     total cpu time spent up to now is      341.0 secs

     total energy              =    -947.48149878 Ry
     Harris-Foulkes estimate   =    -957.03622321 Ry
     estimated scf accuracy    <      33.06292972 Ry

     total magnetization       =     4.00 Bohr mag/cell
     absolute magnetization    =     6.47 Bohr mag/cell

     iteration #  3     ecut=    70.00 Ry     beta= 0.70
     Davidson diagonalization with overlap
     ethr =  6.56E-03,  avg # of iterations =  4.0

     negative rho (up, down):  4.229E-02 5.111E-01

     total cpu time spent up to now is      464.5 secs

     total energy              =    -955.18946862 Ry
     Harris-Foulkes estimate   =    -957.80286288 Ry
     estimated scf accuracy    <     350.91072036 Ry

     total magnetization       =     2.00 Bohr mag/cell
     absolute magnetization    =    28.49 Bohr mag/cell

     iteration #  4     ecut=    70.00 Ry     beta= 0.70
     Davidson diagonalization with overlap
     ethr =  6.56E-03,  avg # of iterations =  2.0

     negative rho (up, down):  4.066E-02 5.021E-01

     total cpu time spent up to now is      561.8 secs

     total energy              =    -944.69433649 Ry
     Harris-Foulkes estimate   =    -955.50998276 Ry
     estimated scf accuracy    <     217.32637036 Ry

     total magnetization       =     0.73 Bohr mag/cell
     absolute magnetization    =    21.89 Bohr mag/cell

     iteration #  5     ecut=    70.00 Ry     beta= 0.70
     Davidson diagonalization with overlap
     ethr =  6.56E-03,  avg # of iterations =  3.0

     negative rho (up, down):  7.144E-02 4.309E-01

     total cpu time spent up to now is      695.4 secs

     total energy              =    -952.95727645 Ry
     Harris-Foulkes estimate   =    -956.36386803 Ry
     estimated scf accuracy    <     296.60285121 Ry

     total magnetization       =     2.01 Bohr mag/cell
     absolute magnetization    =    27.23 Bohr mag/cell

     iteration #  6     ecut=    70.00 Ry     beta= 0.70
     Davidson diagonalization with overlap
     ethr =  6.56E-03,  avg # of iterations =  2.0

     negative rho (up, down):  9.152E-02 4.236E-01

     total cpu time spent up to now is      795.0 secs

     total energy              =    -949.68954967 Ry
     Harris-Foulkes estimate   =    -953.62492966 Ry
     estimated scf accuracy    <     130.14470110 Ry

     total magnetization       =     2.01 Bohr mag/cell
     absolute magnetization    =    18.47 Bohr mag/cell

     iteration #  7     ecut=    70.00 Ry     beta= 0.70
     Davidson diagonalization with overlap
     ethr =  6.56E-03,  avg # of iterations =  2.0

     negative rho (up, down):  4.757E-02 4.223E-01

     total cpu time spent up to now is      900.2 secs

     total energy              =    -951.82205467 Ry
     Harris-Foulkes estimate   =    -952.35345803 Ry
     estimated scf accuracy    <      61.88622804 Ry

     total magnetization       =     0.00 Bohr mag/cell
     absolute magnetization    =    11.40 Bohr mag/cell

     iteration #  8     ecut=    70.00 Ry     beta= 0.70
     Davidson diagonalization with overlap
     ethr =  6.56E-03,  avg # of iterations =  2.0

     negative rho (up, down):  2.778E-02 4.289E-01

     total cpu time spent up to now is      998.6 secs

     total energy              =    -951.15133684 Ry
     Harris-Foulkes estimate   =    -952.34058834 Ry
     estimated scf accuracy    <      42.11047689 Ry

     total magnetization       =     0.00 Bohr mag/cell
     absolute magnetization    =     9.82 Bohr mag/cell

     iteration #  9     ecut=    70.00 Ry     beta= 0.70
     Davidson diagonalization with overlap
     ethr =  6.56E-03,  avg # of iterations =  2.0

     negative rho (up, down):  6.584E-02 2.381E-01

     total cpu time spent up to now is     1097.2 secs

     total energy              =    -951.77004314 Ry
     Harris-Foulkes estimate   =    -951.94624661 Ry
     estimated scf accuracy    <       5.13817766 Ry

     total magnetization       =     0.00 Bohr mag/cell
     absolute magnetization    =     1.37 Bohr mag/cell

     iteration # 10     ecut=    70.00 Ry     beta= 0.70
     Davidson diagonalization with overlap
     ethr =  2.38E-03,  avg # of iterations =  2.5

     negative rho (up, down):  3.698E-02 2.279E-01

     total cpu time spent up to now is     1195.2 secs

     total energy              =    -951.79755877 Ry
     Harris-Foulkes estimate   =    -951.96430029 Ry
     estimated scf accuracy    <       5.57297724 Ry

     total magnetization       =    -0.00 Bohr mag/cell
     absolute magnetization    =     3.27 Bohr mag/cell

     iteration # 11     ecut=    70.00 Ry     beta= 0.70
     Davidson diagonalization with overlap
     ethr =  2.38E-03,  avg # of iterations =  2.0

     negative rho (up, down):  4.220E-02 3.270E-01

     total cpu time spent up to now is     1293.6 secs

     total energy              =    -951.74965320 Ry
     Harris-Foulkes estimate   =    -952.02003047 Ry
     estimated scf accuracy    <       8.81824974 Ry

     total magnetization       =    -0.00 Bohr mag/cell
     absolute magnetization    =     3.56 Bohr mag/cell

     iteration # 12     ecut=    70.00 Ry     beta= 0.70
     Davidson diagonalization with overlap
     ethr =  2.38E-03,  avg # of iterations =  2.0

     negative rho (up, down):  5.990E-03 3.339E-01

     total cpu time spent up to now is     1391.2 secs

     total energy              =    -951.84338551 Ry
     Harris-Foulkes estimate   =    -951.89082893 Ry
     estimated scf accuracy    <       0.60513996 Ry

     total magnetization       =    -0.00 Bohr mag/cell
     absolute magnetization    =     1.01 Bohr mag/cell

     iteration # 13     ecut=    70.00 Ry     beta= 0.70
     Davidson diagonalization with overlap
     ethr =  2.80E-04,  avg # of iterations =  5.0

     negative rho (up, down):  1.655E-02 2.017E-01

     total cpu time spent up to now is     1492.6 secs

     total energy              =    -951.85535101 Ry
     Harris-Foulkes estimate   =    -951.88453380 Ry
     estimated scf accuracy    <       0.49514955 Ry

     total magnetization       =     0.00 Bohr mag/cell
     absolute magnetization    =     0.57 Bohr mag/cell

     iteration # 14     ecut=    70.00 Ry     beta= 0.70
     Davidson diagonalization with overlap
     ethr =  2.29E-04,  avg # of iterations =  2.0

     negative rho (up, down):  1.130E-02 7.208E-02

     total cpu time spent up to now is     1592.5 secs

     total energy              =    -951.88158707 Ry
     Harris-Foulkes estimate   =    -951.89041270 Ry
     estimated scf accuracy    <       0.41967091 Ry

     total magnetization       =     0.00 Bohr mag/cell
     absolute magnetization    =     0.32 Bohr mag/cell

     iteration # 15     ecut=    70.00 Ry     beta= 0.70
     Davidson diagonalization with overlap
     ethr =  1.94E-04,  avg # of iterations =  1.5

     negative rho (up, down):  1.046E-02 2.321E-02

     total cpu time spent up to now is     1688.5 secs

     total energy              =    -951.88306749 Ry
     Harris-Foulkes estimate   =    -951.88602579 Ry
     estimated scf accuracy    <       0.09371017 Ry

     total magnetization       =     0.00 Bohr mag/cell
     absolute magnetization    =     0.14 Bohr mag/cell

     iteration # 16     ecut=    70.00 Ry     beta= 0.70
     Davidson diagonalization with overlap
     ethr =  4.34E-05,  avg # of iterations =  2.5

     negative rho (up, down):  4.255E-03 2.794E-02

     total cpu time spent up to now is     1785.2 secs

     total energy              =    -951.88555031 Ry
     Harris-Foulkes estimate   =    -951.88464404 Ry
     estimated scf accuracy    <       0.00613170 Ry

     total magnetization       =     0.00 Bohr mag/cell
     absolute magnetization    =     0.06 Bohr mag/cell

     iteration # 17     ecut=    70.00 Ry     beta= 0.70
     Davidson diagonalization with overlap
     ethr =  2.84E-06,  avg # of iterations =  7.0

     negative rho (up, down):  1.519E-03 2.639E-02

     total cpu time spent up to now is     1896.1 secs

     total energy              =    -951.88659993 Ry
     Harris-Foulkes estimate   =    -951.88583748 Ry
     estimated scf accuracy    <       0.00025942 Ry

     total magnetization       =    -0.00 Bohr mag/cell
     absolute magnetization    =     0.04 Bohr mag/cell

     iteration # 18     ecut=    70.00 Ry     beta= 0.70
     Davidson diagonalization with overlap
     ethr =  1.20E-07,  avg # of iterations =  3.5

     negative rho (up, down):  1.206E-03 2.786E-02

     total cpu time spent up to now is     2006.8 secs

     total energy              =    -951.88677125 Ry
     Harris-Foulkes estimate   =    -951.88664651 Ry
     estimated scf accuracy    <       0.00073468 Ry

     total magnetization       =    -0.00 Bohr mag/cell
     absolute magnetization    =     0.05 Bohr mag/cell

     iteration # 19     ecut=    70.00 Ry     beta= 0.70
     Davidson diagonalization with overlap
     ethr =  1.20E-07,  avg # of iterations =  2.0

     negative rho (up, down):  1.166E-03 5.852E-02

     total cpu time spent up to now is     2103.9 secs

     total energy              =    -951.88675064 Ry
     Harris-Foulkes estimate   =    -951.88677691 Ry
     estimated scf accuracy    <       0.00153015 Ry

     total magnetization       =     0.00 Bohr mag/cell
     absolute magnetization    =     0.07 Bohr mag/cell

     iteration # 20     ecut=    70.00 Ry     beta= 0.70
     Davidson diagonalization with overlap
     ethr =  1.20E-07,  avg # of iterations =  2.0

     negative rho (up, down):  1.207E-03 7.644E-02

     total cpu time spent up to now is     2205.6 secs

     total energy              =    -951.88663760 Ry
     Harris-Foulkes estimate   =    -951.88678992 Ry
     estimated scf accuracy    <       0.00222995 Ry

     total magnetization       =    -0.00 Bohr mag/cell
     absolute magnetization    =     0.07 Bohr mag/cell

     iteration # 21     ecut=    70.00 Ry     beta= 0.70
     Davidson diagonalization with overlap
     ethr =  1.20E-07,  avg # of iterations =  2.0

     negative rho (up, down):  1.187E-03 3.708E-02

     total cpu time spent up to now is     2309.9 secs

     total energy              =    -951.88675865 Ry
     Harris-Foulkes estimate   =    -951.88669718 Ry
     estimated scf accuracy    <       0.00013137 Ry

     total magnetization       =     0.00 Bohr mag/cell
     absolute magnetization    =     0.02 Bohr mag/cell

     iteration # 22     ecut=    70.00 Ry     beta= 0.70
     Davidson diagonalization with overlap
     ethr =  6.08E-08,  avg # of iterations =  1.0

     negative rho (up, down):  1.190E-03 2.149E-02

     total cpu time spent up to now is     2405.6 secs

     total energy              =    -951.88678186 Ry
     Harris-Foulkes estimate   =    -951.88676392 Ry
     estimated scf accuracy    <       0.00005773 Ry

     total magnetization       =     0.00 Bohr mag/cell
     absolute magnetization    =     0.02 Bohr mag/cell

     iteration # 23     ecut=    70.00 Ry     beta= 0.70
     Davidson diagonalization with overlap
     ethr =  2.67E-08,  avg # of iterations =  3.0

     negative rho (up, down):  1.189E-03 6.543E-02

     total cpu time spent up to now is     2513.1 secs

     total energy              =    -951.88673709 Ry
     Harris-Foulkes estimate   =    -951.88680282 Ry
     estimated scf accuracy    <       0.00143372 Ry

     total magnetization       =    -0.00 Bohr mag/cell
     absolute magnetization    =     0.06 Bohr mag/cell

     iteration # 24     ecut=    70.00 Ry     beta= 0.70
     Davidson diagonalization with overlap
     ethr =  2.67E-08,  avg # of iterations =  2.0

     negative rho (up, down):  1.190E-03 5.542E-02

     total cpu time spent up to now is     2613.3 secs

     total energy              =    -951.88673802 Ry
     Harris-Foulkes estimate   =    -951.88674276 Ry
     estimated scf accuracy    <       0.00052672 Ry

     total magnetization       =     0.00 Bohr mag/cell
     absolute magnetization    =     0.03 Bohr mag/cell

     iteration # 25     ecut=    70.00 Ry     beta= 0.70
     Davidson diagonalization with overlap
     ethr =  2.67E-08,  avg # of iterations =  2.0

     negative rho (up, down):  1.183E-03 3.066E-02

     total cpu time spent up to now is     2713.7 secs

     total energy              =    -951.88676938 Ry
     Harris-Foulkes estimate   =    -951.88674755 Ry
     estimated scf accuracy    <       0.00009160 Ry

     total magnetization       =     0.00 Bohr mag/cell
     absolute magnetization    =     0.01 Bohr mag/cell

     iteration # 26     ecut=    70.00 Ry     beta= 0.70
     Davidson diagonalization with overlap
     ethr =  2.67E-08,  avg # of iterations =  2.0

     negative rho (up, down):  1.182E-03 1.054E-02

     total cpu time spent up to now is     2811.8 secs

     total energy              =    -951.88678229 Ry
     Harris-Foulkes estimate   =    -951.88677266 Ry
     estimated scf accuracy    <       0.00000164 Ry

     total magnetization       =    -0.00 Bohr mag/cell
     absolute magnetization    =     0.00 Bohr mag/cell

     iteration # 27     ecut=    70.00 Ry     beta= 0.70
     Davidson diagonalization with overlap
     ethr =  7.57E-10,  avg # of iterations =  4.0

     negative rho (up, down):  1.182E-03 4.546E-03

     total cpu time spent up to now is     2927.4 secs

     total energy              =    -951.88678313 Ry
     Harris-Foulkes estimate   =    -951.88678271 Ry
     estimated scf accuracy    <       0.00000585 Ry

     total magnetization       =     0.00 Bohr mag/cell
     absolute magnetization    =     0.00 Bohr mag/cell

     iteration # 28     ecut=    70.00 Ry     beta= 0.70
     Davidson diagonalization with overlap
     ethr =  7.57E-10,  avg # of iterations =  2.5

     negative rho (up, down):  1.180E-03 5.144E-05

     Magnetic moment per site:
     atom:    1    charge:    0.2115    magn:   -0.0000    constr:    0.0000
     atom:    2    charge:    0.2121    magn:    0.0000    constr:    0.0000
     atom:    3    charge:    1.7155    magn:    0.0000    constr:    0.0000
     atom:    4    charge:    1.7152    magn:   -0.0000    constr:    0.0000
     atom:    5    charge:    1.7168    magn:    0.0000    constr:    0.0000
     atom:    6    charge:    1.7146    magn:    0.0000    constr:    0.0000
     atom:    7    charge:    1.7168    magn:   -0.0000    constr:    0.0000
     atom:    8    charge:    1.7152    magn:    0.0000    constr:    0.0000
     atom:    9    charge:    1.7155    magn:   -0.0000    constr:    0.0000
     atom:   10    charge:    1.7176    magn:   -0.0000    constr:    0.0000
     atom:   11    charge:    1.7156    magn:    0.0000    constr:    0.0000
     atom:   12    charge:    1.7176    magn:   -0.0000    constr:    0.0000
     atom:   13    charge:    1.7156    magn:    0.0000    constr:    0.0000
     atom:   14    charge:    1.7175    magn:   -0.0000    constr:    0.0000
     atom:   15    charge:    1.7117    magn:    0.0000    constr:    0.0000
     atom:   16    charge:    1.7113    magn:   -0.0000    constr:    0.0000
     atom:   17    charge:    1.7206    magn:    0.0000    constr:    0.0000
     atom:   18    charge:    1.7114    magn:   -0.0000    constr:    0.0000
     atom:   19    charge:    1.7118    magn:   -0.0000    constr:    0.0000
     atom:   20    charge:    1.7175    magn:    0.0000    constr:    0.0000
     atom:   21    charge:    1.7156    magn:    0.0000    constr:    0.0000
     atom:   22    charge:    1.7176    magn:   -0.0000    constr:    0.0000
     atom:   23    charge:    1.7155    magn:   -0.0000    constr:    0.0000
     atom:   24    charge:    1.7151    magn:    0.0000    constr:    0.0000
     atom:   25    charge:    1.7117    magn:   -0.0000    constr:    0.0000
     atom:   26    charge:    1.7116    magn:    0.0000    constr:    0.0000
     atom:   27    charge:    1.8186    magn:   -0.0001    constr:    0.0000
     atom:   28    charge:   13.4056    magn:    0.0002    constr:    0.0000
     atom:   29    charge:    1.8182    magn:    0.0000    constr:    0.0000
     atom:   30    charge:    1.7114    magn:   -0.0000    constr:    0.0000
     atom:   31    charge:    1.7118    magn:   -0.0000    constr:    0.0000
     atom:   32    charge:    1.7152    magn:    0.0000    constr:    0.0000
     atom:   33    charge:    1.7168    magn:   -0.0000    constr:    0.0000
     atom:   34    charge:    1.7154    magn:    0.0000    constr:    0.0000
     atom:   35    charge:    1.7167    magn:   -0.0000    constr:    0.0000
     atom:   36    charge:    1.7145    magn:    0.0001    constr:    0.0000
     atom:   37    charge:    1.7207    magn:   -0.0000    constr:    0.0000
     atom:   38    charge:    1.7116    magn:    0.0000    constr:    0.0000
     atom:   39    charge:    1.8186    magn:   -0.0001    constr:    0.0000
     atom:   40    charge:    1.7113    magn:   -0.0000    constr:    0.0000
     atom:   41    charge:    1.7206    magn:    0.0000    constr:    0.0000
     atom:   42    charge:    1.7146    magn:    0.0000    constr:    0.0000
     atom:   43    charge:    1.7168    magn:    0.0000    constr:    0.0000
     atom:   44    charge:    1.7154    magn:    0.0000    constr:    0.0000
     atom:   45    charge:    1.7212    magn:   -0.0000    constr:    0.0000
     atom:   46    charge:    1.7154    magn:    0.0000    constr:    0.0000
     atom:   47    charge:    1.7167    magn:   -0.0000    constr:    0.0000
     atom:   48    charge:    1.7151    magn:    0.0000    constr:    0.0000
     atom:   49    charge:    1.7117    magn:   -0.0000    constr:    0.0000
     atom:   50    charge:    1.7175    magn:   -0.0000    constr:    0.0000
     atom:   51    charge:    1.7117    magn:    0.0000    constr:    0.0000
     atom:   52    charge:    1.7152    magn:   -0.0000    constr:    0.0000

     total cpu time spent up to now is     3028.6 secs

     End of self-consistent calculation

 ------ SPIN UP ------------


          k = 0.0000 0.0000 0.0000 ( 87777 PWs)   bands (ev):

  -107.9169 -69.0861 -69.0857 -67.0004 -19.8283 -19.0097 -19.0078 -18.8904
   -18.8897 -18.8050 -18.7388 -17.1650 -17.1640 -17.1295 -17.0837 -17.0798
   -16.7551 -16.3142 -16.3130 -16.1687 -16.1667 -16.1539 -15.6719 -14.3125
   -14.3114 -14.1516 -14.0179 -14.0174 -13.5163 -13.1308 -13.1296 -13.0784
   -12.9038 -12.9018 -12.5019 -12.0770 -12.0769 -11.7144 -11.5703 -11.5695
   -10.9356 -10.4327 -10.4326  -9.5788  -9.3678  -9.3667  -9.2277  -9.2131
    -9.2128  -9.1982  -8.9547  -8.9538  -8.5948  -8.5938  -8.4576  -7.9831
    -7.9033  -7.8806  -7.8487  -7.6663  -7.5444  -7.5424  -7.4497  -7.4493
    -6.9313  -6.8474  -6.8226  -6.8122  -6.7466  -6.6213  -6.6201  -6.5568
    -6.5516  -6.5515  -6.5182  -6.4387  -6.4254  -6.3956  -6.2925  -6.2903
    -6.2525  -5.5481  -5.5479  -5.0319  -4.9510  -4.8442  -4.8438  -4.7589
    -4.7172  -4.7105  -4.4217  -4.3996  -4.3941  -3.8383  -3.8356  -3.7659
    -3.7603  -3.7602  -3.7017  -3.4227  -3.4162  -3.3456  -1.8943  -1.8077
    -1.8071  -1.5957  -1.5909  -1.1629   0.1032   0.1059   0.9011   0.9575
     0.9621   1.2105   1.2108   1.5486   2.5034   2.7976   2.8016   2.8488
     3.0327   3.0380   3.4599   3.6200   3.6480   3.7353   3.7393   3.7634
     3.9139   4.2619

     occupation numbers 
     1.0000   1.0000   1.0000   1.0000   1.0000   1.0000   1.0000   1.0000
     1.0000   1.0000   1.0000   1.0000   1.0000   1.0000   1.0000   1.0000
     1.0000   1.0000   1.0000   1.0000   1.0000   1.0000   1.0000   1.0000
     1.0000   1.0000   1.0000   1.0000   1.0000   1.0000   1.0000   1.0000
     1.0000   1.0000   1.0000   1.0000   1.0000   1.0000   1.0000   1.0000
     1.0000   1.0000   1.0000   1.0000   1.0000   1.0000   1.0000   1.0000
     1.0000   1.0000   1.0000   1.0000   1.0000   1.0000   1.0000   1.0000
     1.0000   1.0000   1.0000   1.0000   1.0000   1.0000   1.0000   1.0000
     1.0000   1.0000   1.0000   1.0000   1.0000   1.0000   1.0000   1.0000
     1.0000   1.0000   1.0000   1.0000   1.0000   1.0000   1.0000   1.0000
     1.0000   1.0000   1.0000   1.0000   1.0000   1.0000   1.0000   1.0000
     1.0000   1.0000   1.0000   1.0000   1.0000   1.0000   1.0000   1.0000
     1.0000   1.0000   1.0000   1.0000   1.0000   1.0000   1.0000   1.0000
     1.0000   1.0000   1.0000   1.0000   0.0000   0.0000   0.0000   0.0000
     0.0000   0.0000   0.0000   0.0000   0.0000   0.0000   0.0000   0.0000
     0.0000   0.0000   0.0000   0.0000   0.0000   0.0000   0.0000   0.0000
     0.0000   0.0000

 ------ SPIN DOWN ----------


          k = 0.0000 0.0000 0.0000 ( 87777 PWs)   bands (ev):

  -107.9158 -69.0850 -69.0845 -66.9996 -19.8284 -19.0097 -19.0078 -18.8904
   -18.8897 -18.8051 -18.7389 -17.1650 -17.1640 -17.1295 -17.0837 -17.0798
   -16.7551 -16.3142 -16.3130 -16.1687 -16.1668 -16.1539 -15.6719 -14.3125
   -14.3114 -14.1516 -14.0178 -14.0174 -13.5163 -13.1308 -13.1296 -13.0784
   -12.9038 -12.9018 -12.5020 -12.0770 -12.0769 -11.7144 -11.5703 -11.5696
   -10.9357 -10.4326 -10.4325  -9.5788  -9.3678  -9.3667  -9.2277  -9.2131
    -9.2128  -9.1982  -8.9547  -8.9538  -8.5947  -8.5938  -8.4577  -7.9831
    -7.9033  -7.8803  -7.8485  -7.6664  -7.5444  -7.5425  -7.4496  -7.4493
    -6.9313  -6.8474  -6.8226  -6.8123  -6.7466  -6.6213  -6.6201  -6.5568
    -6.5516  -6.5515  -6.5182  -6.4385  -6.4253  -6.3955  -6.2925  -6.2902
    -6.2524  -5.5481  -5.5479  -5.0319  -4.9510  -4.8442  -4.8438  -4.7590
    -4.7172  -4.7105  -4.4217  -4.3997  -4.3941  -3.8384  -3.8356  -3.7658
    -3.7603  -3.7602  -3.7015  -3.4227  -3.4160  -3.3456  -1.8944  -1.8075
    -1.8071  -1.5957  -1.5909  -1.1630   0.1034   0.1057   0.9010   0.9577
     0.9621   1.2105   1.2108   1.5486   2.5037   2.7975   2.8015   2.8488
     3.0328   3.0380   3.4600   3.6201   3.6484   3.7355   3.7397   3.7638
     3.9144   4.2620

     occupation numbers 
     1.0000   1.0000   1.0000   1.0000   1.0000   1.0000   1.0000   1.0000
     1.0000   1.0000   1.0000   1.0000   1.0000   1.0000   1.0000   1.0000
     1.0000   1.0000   1.0000   1.0000   1.0000   1.0000   1.0000   1.0000
     1.0000   1.0000   1.0000   1.0000   1.0000   1.0000   1.0000   1.0000
     1.0000   1.0000   1.0000   1.0000   1.0000   1.0000   1.0000   1.0000
     1.0000   1.0000   1.0000   1.0000   1.0000   1.0000   1.0000   1.0000
     1.0000   1.0000   1.0000   1.0000   1.0000   1.0000   1.0000   1.0000
     1.0000   1.0000   1.0000   1.0000   1.0000   1.0000   1.0000   1.0000
     1.0000   1.0000   1.0000   1.0000   1.0000   1.0000   1.0000   1.0000
     1.0000   1.0000   1.0000   1.0000   1.0000   1.0000   1.0000   1.0000
     1.0000   1.0000   1.0000   1.0000   1.0000   1.0000   1.0000   1.0000
     1.0000   1.0000   1.0000   1.0000   1.0000   1.0000   1.0000   1.0000
     1.0000   1.0000   1.0000   1.0000   1.0000   1.0000   1.0000   1.0000
     1.0000   1.0000   1.0000   1.0000   0.0000   0.0000   0.0000   0.0000
     0.0000   0.0000   0.0000   0.0000   0.0000   0.0000   0.0000   0.0000
     0.0000   0.0000   0.0000   0.0000   0.0000   0.0000   0.0000   0.0000
     0.0000   0.0000

     the Fermi energy is    -0.9717 ev

!    total energy              =    -951.88678364 Ry
     Harris-Foulkes estimate   =    -951.88678332 Ry
     estimated scf accuracy    <       0.00000076 Ry

     The total energy is the sum of the following terms:

     one-electron contribution =   -2984.68189847 Ry
     hartree contribution      =    1534.98818135 Ry
     xc contribution           =    -265.73525529 Ry
     ewald contribution        =     763.54218877 Ry
     smearing contrib. (-TS)   =       0.00000000 Ry

     total magnetization       =    -0.00 Bohr mag/cell
     absolute magnetization    =     0.00 Bohr mag/cell

     convergence has been achieved in  28 iterations

     Writing output data file distance-2.4.save/

     init_run     :     73.50s CPU     74.66s WALL (       1 calls)
     electrons    :   2903.25s CPU   2952.89s WALL (       1 calls)

     Called by init_run:
     wfcinit      :     43.43s CPU     43.66s WALL (       1 calls)
     wfcinit:atom :      0.05s CPU      0.08s WALL (       2 calls)
     wfcinit:wfcr :     43.01s CPU     43.17s WALL (       2 calls)
     potinit      :     12.62s CPU     13.02s WALL (       1 calls)
     hinit0       :      8.62s CPU      8.64s WALL (       1 calls)

     Called by electrons:
     c_bands      :   1856.39s CPU   1865.43s WALL (      28 calls)
     sum_band     :    610.18s CPU    626.44s WALL (      28 calls)
     v_of_rho     :    214.84s CPU    224.43s WALL (      29 calls)
     v_h          :      2.23s CPU      2.30s WALL (      29 calls)
     v_xc         :    212.61s CPU    222.13s WALL (      29 calls)
     newd         :    216.91s CPU    232.14s WALL (      29 calls)
     mix_rho      :     13.03s CPU     13.20s WALL (      28 calls)

     Called by c_bands:
     init_us_2    :      5.31s CPU      5.35s WALL (     114 calls)
     cegterg      :   1842.64s CPU   1851.61s WALL (      56 calls)

     Called by sum_band:
     sum_band:bec :      0.05s CPU      0.05s WALL (      56 calls)
     addusdens    :    377.98s CPU    392.86s WALL (      28 calls)

     Called by *egterg:
     h_psi        :    969.04s CPU    975.30s WALL (     214 calls)
     s_psi        :    326.48s CPU    326.62s WALL (     214 calls)
     g_psi        :      1.02s CPU      1.02s WALL (     156 calls)
     cdiaghg      :     14.96s CPU     14.97s WALL (     212 calls)
     cegterg:over :    231.83s CPU    231.98s WALL (     156 calls)
     cegterg:upda :    136.06s CPU    136.76s WALL (     156 calls)
     cegterg:last :     99.65s CPU     99.67s WALL (      56 calls)

     Called by h_psi:
     h_psi:pot    :    968.00s CPU    973.05s WALL (     214 calls)
     h_psi:calbec :    326.62s CPU    326.82s WALL (     214 calls)
     vloc_psi     :    315.31s CPU    320.03s WALL (     214 calls)
     add_vuspsi   :    326.07s CPU    326.20s WALL (     214 calls)

     General routines
     calbec       :    468.27s CPU    468.51s WALL (     270 calls)
     fft          :    123.02s CPU    126.92s WALL (    2169 calls)
     ffts         :      2.19s CPU      2.23s WALL (     114 calls)
     fftw         :    333.29s CPU    338.42s WALL (   40952 calls)
     interpolate  :      5.13s CPU      5.25s WALL (      58 calls)

     Parallel routines
     fft_scatt_xy :     83.77s CPU     84.67s WALL (   43235 calls)
     fft_scatt_yz :    146.79s CPU    153.49s WALL (   43235 calls)

     PWSCF        :  49m38.07s CPU  50m29.28s WALL


   This run was terminated on:   4: 2:33  30Dec2022            

=------------------------------------------------------------------------------=
   JOB DONE.
=------------------------------------------------------------------------------=
