
     Program PWSCF v.6.4.1 starts on 30Dec2022 at  5:34:52 

     This program is part of the open-source Quantum ESPRESSO suite
     for quantum simulation of materials; please cite
         "P. Giannozzi et al., J. Phys.:Condens. Matter 21 395502 (2009);
         "P. Giannozzi et al., J. Phys.:Condens. Matter 29 465901 (2017);
          URL http://www.quantum-espresso.org", 
     in publications or presentations arising from this work. More details at
     http://www.quantum-espresso.org/quote

     Parallel version (MPI), running on     6 processors

     MPI processes distributed on     1 nodes
     R & G space division:  proc/nbgrp/npool/nimage =       6
     Reading input from distance-2.0.in

     Current dimensions of program PWSCF are:
     Max number of different atomic species (ntypx) = 10
     Max number of k-points (npk) =  40000
     Max angular momentum in pseudopotentials (lmaxx) =  3

     IMPORTANT: XC functional enforced from input :
     Exchange-correlation      = RVV10 ( 1  4 13  4 3 0)
     Any further DFT definition will be discarded
     Please, verify this is what you really want

               file H.pbe-rrkjus.UPF: wavefunction(s)  1S renormalized

     Subspace diagonalization in iterative solution of the eigenvalue problem:
     a serial algorithm will be used


     Parallelization info
     --------------------
     sticks:   dense  smooth     PW     G-vecs:    dense   smooth      PW
     Min        3051    1746    432               270999   117096   14629
     Max        3053    1747    437               271001   117099   14630
     Sum       18313   10477   2611              1626001   702581   87777



     bravais-lattice index     =            4
     lattice parameter (alat)  =      23.2937  a.u.
     unit-cell volume          =    8879.8548 (a.u.)^3
     number of atoms/cell      =           52
     number of atomic types    =            3
     number of electrons       =       216.00
     number of Kohn-Sham states=          130
     kinetic-energy cutoff     =      70.0000  Ry
     charge density cutoff     =     490.0000  Ry
     convergence threshold     =      1.0E-06
     mixing beta               =       0.7000
     number of iterations used =            8  plain     mixing
     Exchange-correlation      = RVV10 ( 1  4 13  4 3 0)

     celldm(1)=  23.293684  celldm(2)=   0.000000  celldm(3)=   0.811261
     celldm(4)=   0.000000  celldm(5)=   0.000000  celldm(6)=   0.000000

     crystal axes: (cart. coord. in units of alat)
               a(1) = (   1.000000   0.000000   0.000000 )  
               a(2) = (  -0.500000   0.866025   0.000000 )  
               a(3) = (   0.000000   0.000000   0.811261 )  

     reciprocal axes: (cart. coord. in units 2 pi/alat)
               b(1) = (  1.000000  0.577350 -0.000000 )  
               b(2) = (  0.000000  1.154701  0.000000 )  
               b(3) = (  0.000000 -0.000000  1.232649 )  


     PseudoPot. # 1 for H  read from file:
     /home/cristian/Escritorio/Proyecto_Grafeno/pseudopotenciales/H.pbe-rrkjus.UPF
     MD5 check sum: 7cc9d459525c9a0585f487a71c3c9563
     Pseudo is Ultrasoft, Zval =  1.0
     Generated by new atomic code, or converted to UPF format
     Using radial grid of 1061 points,  2 beta functions with: 
                l(1) =   0
                l(2) =   0
     Q(r) pseudized with 0 coefficients 


     PseudoPot. # 2 for C  read from file:
     /home/cristian/Escritorio/Proyecto_Grafeno/pseudopotenciales/C.pbe-n-rrkjus_psl.1.0.0.UPF
     MD5 check sum: 1fdd950c42eb37d8afe3dd2f8d12311e
     Pseudo is Ultrasoft + core correction, Zval =  4.0
     Generated using "atomic" code by A. Dal Corso v.6.3MaX
     Using radial grid of 1073 points,  4 beta functions with: 
                l(1) =   0
                l(2) =   0
                l(3) =   1
                l(4) =   1
     Q(r) pseudized with 0 coefficients 


     PseudoPot. # 3 for Ni read from file:
     /home/cristian/Escritorio/Proyecto_Grafeno/pseudopotenciales/Ni.pbe-spn-rrkjus_psl.1.0.0.UPF
     MD5 check sum: 8b3fc9aac6dafe35f580d41bb18c3945
     Pseudo is Ultrasoft + core correction, Zval = 18.0
     Generated using "atomic" code by A. Dal Corso v.6.3
     Using radial grid of 1195 points,  6 beta functions with: 
                l(1) =   0
                l(2) =   0
                l(3) =   1
                l(4) =   1
                l(5) =   2
                l(6) =   2
     Q(r) pseudized with 0 coefficients 


     vdW kernel table read from file rVV10_kernel_table
     MD5 check sum: b8e2538accc0c0b3206b45ba4daaba6c

     atomic species   valence    mass     pseudopotential
        H              1.00     1.00794     H ( 1.00)
        C              4.00    12.01070     C ( 1.00)
        Ni            18.00    58.69340     Ni( 1.00)

     Starting magnetic structure 
     atomic species   magnetization
        H            0.500
        C            0.300
        Ni           0.800

      2 Sym. Ops. (no inversion) found


                                    s                        frac. trans.

      isym =  1     identity                                     

 cryst.   s( 1) = (     1          0          0      )
                  (     0          1          0      )
                  (     0          0          1      )

 cart.    s( 1) = (  1.0000000  0.0000000  0.0000000 )
                  (  0.0000000  1.0000000  0.0000000 )
                  (  0.0000000  0.0000000  1.0000000 )


      isym =  2     inv. 180 deg rotation - cryst. axis [1,1,0]  

 cryst.   s( 2) = (     0         -1          0      )
                  (    -1          0          0      )
                  (     0          0          1      )

 cart.    s( 2) = (  0.5000000 -0.8660254  0.0000000 )
                  ( -0.8660254 -0.5000000  0.0000000 )
                  (  0.0000000  0.0000000  1.0000000 )


     point group C_s (m)    
     there are  2 classes
     the character table:

       E     s    
A'     1.00  1.00
A''    1.00 -1.00

     the symmetry operations in each class and the name of the first element:

     E        1
          identity                                               
     s        2
          inv. 180 deg rotation - cryst. axis [1,1,0]            

   Cartesian axes

     site n.     atom                  positions (alat units)
         1           H   tau(   1) = (   0.3000000   0.4041452   0.1622522  )
         2           H   tau(   2) = (   0.3000000   0.4041452   0.2232649  )
         3           C   tau(   3) = (   0.0000000   0.0000000   0.0000000  )
         4           C   tau(   4) = (   0.0000000   0.1154701   0.0000000  )
         5           C   tau(   5) = (  -0.1000000   0.1732051   0.0000000  )
         6           C   tau(   6) = (  -0.1000000   0.2886751   0.0000000  )
         7           C   tau(   7) = (  -0.2000000   0.3464102   0.0000000  )
         8           C   tau(   8) = (  -0.2000000   0.4618802   0.0000000  )
         9           C   tau(   9) = (  -0.3000000   0.5196152   0.0000000  )
        10           C   tau(  10) = (  -0.3000000   0.6350853   0.0000000  )
        11           C   tau(  11) = (  -0.4000000   0.6928203   0.0000000  )
        12           C   tau(  12) = (  -0.4000000   0.8082904   0.0000000  )
        13           C   tau(  13) = (   0.2000000   0.0000000   0.0000000  )
        14           C   tau(  14) = (   0.2000000   0.1154701   0.0000000  )
        15           C   tau(  15) = (   0.1000000   0.1732051   0.0000000  )
        16           C   tau(  16) = (   0.1000000   0.2886751   0.0000000  )
        17           C   tau(  17) = (   0.0000000   0.3464102   0.0000000  )
        18           C   tau(  18) = (   0.0000000   0.4618802   0.0000000  )
        19           C   tau(  19) = (  -0.1000000   0.5196152   0.0000000  )
        20           C   tau(  20) = (  -0.1000000   0.6350853   0.0000000  )
        21           C   tau(  21) = (  -0.2000000   0.6928203   0.0000000  )
        22           C   tau(  22) = (  -0.2000000   0.8082904   0.0000000  )
        23           C   tau(  23) = (   0.4000000   0.0000000   0.0000000  )
        24           C   tau(  24) = (   0.4000000   0.1154701   0.0000000  )
        25           C   tau(  25) = (   0.3000000   0.1732051   0.0000000  )
        26           C   tau(  26) = (   0.3000000   0.2886751   0.0000000  )
        27           C   tau(  27) = (   0.2000000   0.3464102   0.0000000  )
        28           Ni  tau(  28) = (   0.2000000   0.4618802   0.0000000  )
        29           C   tau(  29) = (   0.1000000   0.5196152   0.0000000  )
        30           C   tau(  30) = (   0.1000000   0.6350853   0.0000000  )
        31           C   tau(  31) = (   0.0000000   0.6928203   0.0000000  )
        32           C   tau(  32) = (   0.0000000   0.8082904   0.0000000  )
        33           C   tau(  33) = (   0.6000000   0.0000000   0.0000000  )
        34           C   tau(  34) = (   0.6000000   0.1154701   0.0000000  )
        35           C   tau(  35) = (   0.5000000   0.1732051   0.0000000  )
        36           C   tau(  36) = (   0.5000000   0.2886751   0.0000000  )
        37           C   tau(  37) = (   0.4000000   0.3464102   0.0000000  )
        38           C   tau(  38) = (   0.4000000   0.4618802   0.0000000  )
        39           C   tau(  39) = (   0.3000000   0.5196152   0.0000000  )
        40           C   tau(  40) = (   0.3000000   0.6350853   0.0000000  )
        41           C   tau(  41) = (   0.2000000   0.6928203   0.0000000  )
        42           C   tau(  42) = (   0.2000000   0.8082904   0.0000000  )
        43           C   tau(  43) = (   0.8000000   0.0000000   0.0000000  )
        44           C   tau(  44) = (   0.8000000   0.1154701   0.0000000  )
        45           C   tau(  45) = (   0.7000000   0.1732051   0.0000000  )
        46           C   tau(  46) = (   0.7000000   0.2886751   0.0000000  )
        47           C   tau(  47) = (   0.6000000   0.3464102   0.0000000  )
        48           C   tau(  48) = (   0.6000000   0.4618802   0.0000000  )
        49           C   tau(  49) = (   0.5000000   0.5196152   0.0000000  )
        50           C   tau(  50) = (   0.5000000   0.6350853   0.0000000  )
        51           C   tau(  51) = (   0.4000000   0.6928203   0.0000000  )
        52           C   tau(  52) = (   0.4000000   0.8082904   0.0000000  )

   Crystallographic axes

     site n.     atom                  positions (cryst. coord.)
         1           H   tau(   1) = (  0.5333333  0.4666667  0.2000000  )
         2           H   tau(   2) = (  0.5333333  0.4666667  0.2752072  )
         3           C   tau(   3) = (  0.0000000  0.0000000  0.0000000  )
         4           C   tau(   4) = (  0.0666667  0.1333333  0.0000000  )
         5           C   tau(   5) = (  0.0000000  0.2000000  0.0000000  )
         6           C   tau(   6) = (  0.0666667  0.3333333  0.0000000  )
         7           C   tau(   7) = (  0.0000000  0.4000000  0.0000000  )
         8           C   tau(   8) = (  0.0666667  0.5333333  0.0000000  )
         9           C   tau(   9) = (  0.0000000  0.6000000  0.0000000  )
        10           C   tau(  10) = (  0.0666667  0.7333333  0.0000000  )
        11           C   tau(  11) = (  0.0000000  0.8000000  0.0000000  )
        12           C   tau(  12) = (  0.0666667  0.9333333  0.0000000  )
        13           C   tau(  13) = (  0.2000000  0.0000000  0.0000000  )
        14           C   tau(  14) = (  0.2666667  0.1333333  0.0000000  )
        15           C   tau(  15) = (  0.2000000  0.2000000  0.0000000  )
        16           C   tau(  16) = (  0.2666667  0.3333333  0.0000000  )
        17           C   tau(  17) = (  0.2000000  0.4000000  0.0000000  )
        18           C   tau(  18) = (  0.2666667  0.5333333  0.0000000  )
        19           C   tau(  19) = (  0.2000000  0.6000000  0.0000000  )
        20           C   tau(  20) = (  0.2666667  0.7333333  0.0000000  )
        21           C   tau(  21) = (  0.2000000  0.8000000  0.0000000  )
        22           C   tau(  22) = (  0.2666667  0.9333333  0.0000000  )
        23           C   tau(  23) = (  0.4000000  0.0000000  0.0000000  )
        24           C   tau(  24) = (  0.4666667  0.1333333  0.0000000  )
        25           C   tau(  25) = (  0.4000000  0.2000000  0.0000000  )
        26           C   tau(  26) = (  0.4666667  0.3333333  0.0000000  )
        27           C   tau(  27) = (  0.4000000  0.4000000  0.0000000  )
        28           Ni  tau(  28) = (  0.4666667  0.5333333  0.0000000  )
        29           C   tau(  29) = (  0.4000000  0.6000000  0.0000000  )
        30           C   tau(  30) = (  0.4666667  0.7333333  0.0000000  )
        31           C   tau(  31) = (  0.4000000  0.8000000  0.0000000  )
        32           C   tau(  32) = (  0.4666667  0.9333333  0.0000000  )
        33           C   tau(  33) = (  0.6000000  0.0000000  0.0000000  )
        34           C   tau(  34) = (  0.6666667  0.1333333  0.0000000  )
        35           C   tau(  35) = (  0.6000000  0.2000000  0.0000000  )
        36           C   tau(  36) = (  0.6666667  0.3333333  0.0000000  )
        37           C   tau(  37) = (  0.6000000  0.4000000  0.0000000  )
        38           C   tau(  38) = (  0.6666667  0.5333333  0.0000000  )
        39           C   tau(  39) = (  0.6000000  0.6000000  0.0000000  )
        40           C   tau(  40) = (  0.6666667  0.7333333  0.0000000  )
        41           C   tau(  41) = (  0.6000000  0.8000000  0.0000000  )
        42           C   tau(  42) = (  0.6666667  0.9333333  0.0000000  )
        43           C   tau(  43) = (  0.8000000  0.0000000  0.0000000  )
        44           C   tau(  44) = (  0.8666667  0.1333333  0.0000000  )
        45           C   tau(  45) = (  0.8000000  0.2000000  0.0000000  )
        46           C   tau(  46) = (  0.8666667  0.3333333  0.0000000  )
        47           C   tau(  47) = (  0.8000000  0.4000000  0.0000000  )
        48           C   tau(  48) = (  0.8666667  0.5333333  0.0000000  )
        49           C   tau(  49) = (  0.8000000  0.6000000  0.0000000  )
        50           C   tau(  50) = (  0.8666667  0.7333333  0.0000000  )
        51           C   tau(  51) = (  0.8000000  0.8000000  0.0000000  )
        52           C   tau(  52) = (  0.8666667  0.9333333  0.0000000  )

     number of k points=     1  Marzari-Vanderbilt smearing, width (Ry)=  0.0010
                       cart. coord. in units 2pi/alat
        k(    1) = (   0.0000000   0.0000000   0.0000000), wk =   1.0000000

                       cryst. coord.
        k(    1) = (   0.0000000   0.0000000   0.0000000), wk =   1.0000000

     Dense  grid:  1626001 G-vectors     FFT dimensions: ( 180, 180, 135)

     Smooth grid:   702581 G-vectors     FFT dimensions: ( 125, 125, 108)

     Dynamical RAM for                 wfc:      29.03 MB

     Dynamical RAM for     wfc (w. buffer):      87.10 MB

     Dynamical RAM for           str. fact:      12.41 MB

     Dynamical RAM for           local pot:       0.00 MB

     Dynamical RAM for          nlocal pot:      92.46 MB

     Dynamical RAM for                qrad:      19.73 MB

     Dynamical RAM for          rho,v,vnew:      58.92 MB

     Dynamical RAM for               rhoin:      19.64 MB

     Dynamical RAM for            rho*nmix:     132.32 MB

     Dynamical RAM for           G-vectors:      16.40 MB

     Dynamical RAM for          h,s,v(r/c):      12.38 MB

     Dynamical RAM for          <psi|beta>:       0.82 MB

     Dynamical RAM for                 psi:     116.14 MB

     Dynamical RAM for                hpsi:     116.14 MB

     Dynamical RAM for                spsi:     116.14 MB

     Dynamical RAM for      wfcinit/wfcrot:      93.90 MB

     Dynamical RAM for           addusdens:     975.89 MB

     Estimated static dynamical RAM per process >     489.64 MB

     Estimated max dynamical RAM per process >       1.43 GB

     Estimated total dynamical RAM >       8.59 GB
     Generating pointlists ...
     new r_m :   0.0252 (alat units)  0.5862 (a.u.) for type    1
     new r_m :   0.0476 (alat units)  1.1095 (a.u.) for type    2
     new r_m :   0.0476 (alat units)  1.1095 (a.u.) for type    3

     Check: negative core charge=   -0.000002

     Initial potential from superposition of free atoms

     starting charge  215.80530, renormalised to  216.00000

     negative rho (up, down):  1.659E-04 1.809E-02


---------------------------------------------------------------------------------
Carrying out rVV10 run using the following parameters:
Nqs =      20    Nr_points =    1024   r_max =   100.000
b_value =  6.30000    beta =  0.00901
     q_mesh =  0.00010000  0.00030000  0.00058939  0.00100810
               0.00161396  0.00249058  0.00375900  0.00559430
               0.00824984  0.01209221  0.01765183  0.02569619
               0.03733578  0.05417739  0.07854596  0.11380545
               0.16482331  0.23864234  0.34545298  0.50000000

Gradients computed in Reciprocal space

---------------------------------------------------------------------------------


     Starting wfcs are  208 randomized atomic wfcs

     total cpu time spent up to now is       75.7 secs

     Self-consistent Calculation

     iteration #  1     ecut=    70.00 Ry     beta= 0.70
     Davidson diagonalization with overlap
     ethr =  1.00E-02,  avg # of iterations =  7.0

     negative rho (up, down):  3.251E-04 1.566E-02

     total cpu time spent up to now is      214.4 secs

     total energy              =    -946.71813944 Ry
     Harris-Foulkes estimate   =    -949.73074480 Ry
     estimated scf accuracy    <      14.18807884 Ry

     total magnetization       =     6.00 Bohr mag/cell
     absolute magnetization    =     6.75 Bohr mag/cell

     iteration #  2     ecut=    70.00 Ry     beta= 0.70
     Davidson diagonalization with overlap
     ethr =  6.57E-03,  avg # of iterations =  3.5

     negative rho (up, down):  9.836E-03 2.694E-01

     total cpu time spent up to now is      341.0 secs

     total energy              =    -948.70227100 Ry
     Harris-Foulkes estimate   =    -956.78165082 Ry
     estimated scf accuracy    <      34.94390643 Ry

     total magnetization       =     4.00 Bohr mag/cell
     absolute magnetization    =     7.41 Bohr mag/cell

     iteration #  3     ecut=    70.00 Ry     beta= 0.70
     Davidson diagonalization with overlap
     ethr =  6.57E-03,  avg # of iterations =  3.5

     negative rho (up, down):  4.992E-02 5.317E-01

     total cpu time spent up to now is      460.1 secs

     total energy              =    -952.83719794 Ry
     Harris-Foulkes estimate   =    -960.59804947 Ry
     estimated scf accuracy    <     510.48351536 Ry

     total magnetization       =     0.00 Bohr mag/cell
     absolute magnetization    =    32.75 Bohr mag/cell

     iteration #  4     ecut=    70.00 Ry     beta= 0.70
     Davidson diagonalization with overlap
     ethr =  6.57E-03,  avg # of iterations =  3.0

     negative rho (up, down):  3.050E-02 5.119E-01

     total cpu time spent up to now is      565.0 secs

     total energy              =    -944.17846807 Ry
     Harris-Foulkes estimate   =    -954.63018782 Ry
     estimated scf accuracy    <     166.54896258 Ry

     total magnetization       =     0.74 Bohr mag/cell
     absolute magnetization    =    19.31 Bohr mag/cell

     iteration #  5     ecut=    70.00 Ry     beta= 0.70
     Davidson diagonalization with overlap
     ethr =  6.57E-03,  avg # of iterations =  3.0

     negative rho (up, down):  6.799E-02 2.723E-01

     total cpu time spent up to now is      689.4 secs

     total energy              =    -953.71494089 Ry
     Harris-Foulkes estimate   =    -953.00292536 Ry
     estimated scf accuracy    <      93.99665807 Ry

     total magnetization       =     2.00 Bohr mag/cell
     absolute magnetization    =    15.45 Bohr mag/cell

     iteration #  6     ecut=    70.00 Ry     beta= 0.70
     Davidson diagonalization with overlap
     ethr =  6.57E-03,  avg # of iterations =  3.0

     negative rho (up, down):  2.797E-02 5.119E-01

     total cpu time spent up to now is      801.6 secs

     total energy              =    -945.79898388 Ry
     Harris-Foulkes estimate   =    -959.87774819 Ry
     estimated scf accuracy    <     475.23829105 Ry

     total magnetization       =     2.00 Bohr mag/cell
     absolute magnetization    =    34.08 Bohr mag/cell

     iteration #  7     ecut=    70.00 Ry     beta= 0.70
     Davidson diagonalization with overlap
     ethr =  6.57E-03,  avg # of iterations =  2.5

     negative rho (up, down):  6.536E-02 4.085E-01

     total cpu time spent up to now is      917.0 secs

     total energy              =    -950.60517965 Ry
     Harris-Foulkes estimate   =    -951.72596831 Ry
     estimated scf accuracy    <      16.47293012 Ry

     total magnetization       =     4.00 Bohr mag/cell
     absolute magnetization    =     7.72 Bohr mag/cell

     iteration #  8     ecut=    70.00 Ry     beta= 0.70
     Davidson diagonalization with overlap
     ethr =  6.57E-03,  avg # of iterations =  1.5

     negative rho (up, down):  2.763E-02 3.304E-01

     total cpu time spent up to now is     1013.1 secs

     total energy              =    -951.64733181 Ry
     Harris-Foulkes estimate   =    -951.84564536 Ry
     estimated scf accuracy    <       2.50977080 Ry

     total magnetization       =     0.00 Bohr mag/cell
     absolute magnetization    =     2.00 Bohr mag/cell

     iteration #  9     ecut=    70.00 Ry     beta= 0.70
     Davidson diagonalization with overlap
     ethr =  1.16E-03,  avg # of iterations =  5.0

     negative rho (up, down):  3.743E-02 7.691E-02

     total cpu time spent up to now is     1117.6 secs

     total energy              =    -951.78165815 Ry
     Harris-Foulkes estimate   =    -951.95981566 Ry
     estimated scf accuracy    <       5.14091411 Ry

     total magnetization       =    -0.00 Bohr mag/cell
     absolute magnetization    =     2.58 Bohr mag/cell

     iteration # 10     ecut=    70.00 Ry     beta= 0.70
     Davidson diagonalization with overlap
     ethr =  1.16E-03,  avg # of iterations =  2.0

     negative rho (up, down):  2.059E-02 3.309E-01

     total cpu time spent up to now is     1216.9 secs

     total energy              =    -951.80290718 Ry
     Harris-Foulkes estimate   =    -951.92828203 Ry
     estimated scf accuracy    <       2.91265856 Ry

     total magnetization       =    -0.00 Bohr mag/cell
     absolute magnetization    =     2.34 Bohr mag/cell

     iteration # 11     ecut=    70.00 Ry     beta= 0.70
     Davidson diagonalization with overlap
     ethr =  1.16E-03,  avg # of iterations =  2.0

     negative rho (up, down):  7.110E-03 3.476E-01

     total cpu time spent up to now is     1313.3 secs

     total energy              =    -951.83453120 Ry
     Harris-Foulkes estimate   =    -951.89465216 Ry
     estimated scf accuracy    <       1.63275756 Ry

     total magnetization       =    -0.00 Bohr mag/cell
     absolute magnetization    =     1.86 Bohr mag/cell

     iteration # 12     ecut=    70.00 Ry     beta= 0.70
     Davidson diagonalization with overlap
     ethr =  7.56E-04,  avg # of iterations =  1.5

     negative rho (up, down):  9.070E-03 3.097E-01

     total cpu time spent up to now is     1408.6 secs

     total energy              =    -951.85752889 Ry
     Harris-Foulkes estimate   =    -951.87273990 Ry
     estimated scf accuracy    <       0.27879969 Ry

     total magnetization       =     0.00 Bohr mag/cell
     absolute magnetization    =     0.71 Bohr mag/cell

     iteration # 13     ecut=    70.00 Ry     beta= 0.70
     Davidson diagonalization with overlap
     ethr =  1.29E-04,  avg # of iterations =  7.5

     negative rho (up, down):  3.061E-03 2.685E-01

     total cpu time spent up to now is     1508.9 secs

     total energy              =    -951.87076571 Ry
     Harris-Foulkes estimate   =    -951.86867747 Ry
     estimated scf accuracy    <       0.05753033 Ry

     total magnetization       =     0.00 Bohr mag/cell
     absolute magnetization    =     0.46 Bohr mag/cell

     iteration # 14     ecut=    70.00 Ry     beta= 0.70
     Davidson diagonalization with overlap
     ethr =  2.66E-05,  avg # of iterations =  4.0

     negative rho (up, down):  1.700E-03 2.312E-01

     total cpu time spent up to now is     1607.2 secs

     total energy              =    -951.87229547 Ry
     Harris-Foulkes estimate   =    -951.87240818 Ry
     estimated scf accuracy    <       0.02039110 Ry

     total magnetization       =    -0.00 Bohr mag/cell
     absolute magnetization    =     0.27 Bohr mag/cell

     iteration # 15     ecut=    70.00 Ry     beta= 0.70
     Davidson diagonalization with overlap
     ethr =  9.44E-06,  avg # of iterations =  2.5

     negative rho (up, down):  1.556E-03 1.574E-01

     total cpu time spent up to now is     1705.2 secs

     total energy              =    -951.87380217 Ry
     Harris-Foulkes estimate   =    -951.87330092 Ry
     estimated scf accuracy    <       0.00381222 Ry

     total magnetization       =     0.00 Bohr mag/cell
     absolute magnetization    =     0.13 Bohr mag/cell

     iteration # 16     ecut=    70.00 Ry     beta= 0.70
     Davidson diagonalization with overlap
     ethr =  1.76E-06,  avg # of iterations =  4.0

     negative rho (up, down):  1.266E-03 1.223E-01

     total cpu time spent up to now is     1810.4 secs

     total energy              =    -951.87429583 Ry
     Harris-Foulkes estimate   =    -951.87398892 Ry
     estimated scf accuracy    <       0.00400800 Ry

     total magnetization       =    -0.00 Bohr mag/cell
     absolute magnetization    =     0.14 Bohr mag/cell

     iteration # 17     ecut=    70.00 Ry     beta= 0.70
     Davidson diagonalization with overlap
     ethr =  1.76E-06,  avg # of iterations =  3.0

     negative rho (up, down):  1.247E-03 1.443E-01

     total cpu time spent up to now is     1909.3 secs

     total energy              =    -951.87408167 Ry
     Harris-Foulkes estimate   =    -951.87432625 Ry
     estimated scf accuracy    <       0.00901309 Ry

     total magnetization       =     0.00 Bohr mag/cell
     absolute magnetization    =     0.18 Bohr mag/cell

     iteration # 18     ecut=    70.00 Ry     beta= 0.70
     Davidson diagonalization with overlap
     ethr =  1.76E-06,  avg # of iterations =  1.5

     negative rho (up, down):  1.403E-03 1.009E-01

     total cpu time spent up to now is     2006.2 secs

     total energy              =    -951.87404160 Ry
     Harris-Foulkes estimate   =    -951.87422645 Ry
     estimated scf accuracy    <       0.00483356 Ry

     total magnetization       =    -0.00 Bohr mag/cell
     absolute magnetization    =     0.12 Bohr mag/cell

     iteration # 19     ecut=    70.00 Ry     beta= 0.70
     Davidson diagonalization with overlap
     ethr =  1.76E-06,  avg # of iterations =  2.5

     negative rho (up, down):  1.227E-03 4.573E-02

     total cpu time spent up to now is     2104.7 secs

     total energy              =    -951.87435994 Ry
     Harris-Foulkes estimate   =    -951.87421998 Ry
     estimated scf accuracy    <       0.00041139 Ry

     total magnetization       =     0.00 Bohr mag/cell
     absolute magnetization    =     0.05 Bohr mag/cell

     iteration # 20     ecut=    70.00 Ry     beta= 0.70
     Davidson diagonalization with overlap
     ethr =  1.90E-07,  avg # of iterations =  2.5

     negative rho (up, down):  1.242E-03 2.502E-02

     total cpu time spent up to now is     2209.5 secs

     total energy              =    -951.87439103 Ry
     Harris-Foulkes estimate   =    -951.87440172 Ry
     estimated scf accuracy    <       0.00043000 Ry

     total magnetization       =    -0.00 Bohr mag/cell
     absolute magnetization    =     0.04 Bohr mag/cell

     iteration # 21     ecut=    70.00 Ry     beta= 0.70
     Davidson diagonalization with overlap
     ethr =  1.90E-07,  avg # of iterations =  2.0

     negative rho (up, down):  1.234E-03 2.239E-02

     total cpu time spent up to now is     2308.4 secs

     total energy              =    -951.87441411 Ry
     Harris-Foulkes estimate   =    -951.87441290 Ry
     estimated scf accuracy    <       0.00025102 Ry

     total magnetization       =    -0.00 Bohr mag/cell
     absolute magnetization    =     0.04 Bohr mag/cell

     iteration # 22     ecut=    70.00 Ry     beta= 0.70
     Davidson diagonalization with overlap
     ethr =  1.16E-07,  avg # of iterations =  1.5

     negative rho (up, down):  1.234E-03 1.578E-02

     total cpu time spent up to now is     2404.2 secs

     total energy              =    -951.87442251 Ry
     Harris-Foulkes estimate   =    -951.87442175 Ry
     estimated scf accuracy    <       0.00006686 Ry

     total magnetization       =     0.00 Bohr mag/cell
     absolute magnetization    =     0.03 Bohr mag/cell

     iteration # 23     ecut=    70.00 Ry     beta= 0.70
     Davidson diagonalization with overlap
     ethr =  3.10E-08,  avg # of iterations =  2.0

     negative rho (up, down):  1.231E-03 9.343E-03

     total cpu time spent up to now is     2500.2 secs

     total energy              =    -951.87443138 Ry
     Harris-Foulkes estimate   =    -951.87442659 Ry
     estimated scf accuracy    <       0.00002147 Ry

     total magnetization       =    -0.00 Bohr mag/cell
     absolute magnetization    =     0.02 Bohr mag/cell

     iteration # 24     ecut=    70.00 Ry     beta= 0.70
     Davidson diagonalization with overlap
     ethr =  9.94E-09,  avg # of iterations =  2.5

     negative rho (up, down):  1.244E-03 5.474E-02

     total cpu time spent up to now is     2610.2 secs

     total energy              =    -951.87438535 Ry
     Harris-Foulkes estimate   =    -951.87444589 Ry
     estimated scf accuracy    <       0.00104936 Ry

     total magnetization       =    -0.00 Bohr mag/cell
     absolute magnetization    =     0.05 Bohr mag/cell

     iteration # 25     ecut=    70.00 Ry     beta= 0.70
     Davidson diagonalization with overlap
     ethr =  9.94E-09,  avg # of iterations =  3.0

     negative rho (up, down):  1.231E-03 2.796E-02

     total cpu time spent up to now is     2717.2 secs

     total energy              =    -951.87441904 Ry
     Harris-Foulkes estimate   =    -951.87439492 Ry
     estimated scf accuracy    <       0.00005649 Ry

     total magnetization       =     0.00 Bohr mag/cell
     absolute magnetization    =     0.02 Bohr mag/cell

     iteration # 26     ecut=    70.00 Ry     beta= 0.70
     Davidson diagonalization with overlap
     ethr =  9.94E-09,  avg # of iterations =  2.5

     negative rho (up, down):  1.226E-03 7.060E-03

     total cpu time spent up to now is     2819.4 secs

     total energy              =    -951.87443027 Ry
     Harris-Foulkes estimate   =    -951.87442296 Ry
     estimated scf accuracy    <       0.00001009 Ry

     total magnetization       =     0.00 Bohr mag/cell
     absolute magnetization    =     0.01 Bohr mag/cell

     iteration # 27     ecut=    70.00 Ry     beta= 0.70
     Davidson diagonalization with overlap
     ethr =  4.67E-09,  avg # of iterations =  2.0

     negative rho (up, down):  1.226E-03 4.666E-03

     total cpu time spent up to now is     2918.5 secs

     total energy              =    -951.87443162 Ry
     Harris-Foulkes estimate   =    -951.87443139 Ry
     estimated scf accuracy    <       0.00000510 Ry

     total magnetization       =    -0.00 Bohr mag/cell
     absolute magnetization    =     0.01 Bohr mag/cell

     iteration # 28     ecut=    70.00 Ry     beta= 0.70
     Davidson diagonalization with overlap
     ethr =  2.36E-09,  avg # of iterations =  2.0

     negative rho (up, down):  1.226E-03 8.827E-03

     total cpu time spent up to now is     3019.1 secs

     total energy              =    -951.87443112 Ry
     Harris-Foulkes estimate   =    -951.87443203 Ry
     estimated scf accuracy    <       0.00002769 Ry

     total magnetization       =    -0.00 Bohr mag/cell
     absolute magnetization    =     0.01 Bohr mag/cell

     iteration # 29     ecut=    70.00 Ry     beta= 0.70
     Davidson diagonalization with overlap
     ethr =  2.36E-09,  avg # of iterations =  1.5

     negative rho (up, down):  1.226E-03 5.486E-03

     total cpu time spent up to now is     3117.6 secs

     total energy              =    -951.87443099 Ry
     Harris-Foulkes estimate   =    -951.87443148 Ry
     estimated scf accuracy    <       0.00001091 Ry

     total magnetization       =    -0.00 Bohr mag/cell
     absolute magnetization    =     0.01 Bohr mag/cell

     iteration # 30     ecut=    70.00 Ry     beta= 0.70
     Davidson diagonalization with overlap
     ethr =  2.36E-09,  avg # of iterations =  2.0

     negative rho (up, down):  1.226E-03 2.487E-03

     total cpu time spent up to now is     3217.4 secs

     total energy              =    -951.87443181 Ry
     Harris-Foulkes estimate   =    -951.87443141 Ry
     estimated scf accuracy    <       0.00000164 Ry

     total magnetization       =     0.00 Bohr mag/cell
     absolute magnetization    =     0.01 Bohr mag/cell

     iteration # 31     ecut=    70.00 Ry     beta= 0.70
     Davidson diagonalization with overlap
     ethr =  7.58E-10,  avg # of iterations =  2.0

     negative rho (up, down):  1.225E-03 3.800E-04

     total cpu time spent up to now is     3317.0 secs

     total energy              =    -951.87443191 Ry
     Harris-Foulkes estimate   =    -951.87443196 Ry
     estimated scf accuracy    <       0.00000210 Ry

     total magnetization       =     0.00 Bohr mag/cell
     absolute magnetization    =     0.00 Bohr mag/cell

     iteration # 32     ecut=    70.00 Ry     beta= 0.70
     Davidson diagonalization with overlap
     ethr =  7.58E-10,  avg # of iterations =  2.0

     negative rho (up, down):  1.224E-03 1.097E-05

     Magnetic moment per site:
     atom:    1    charge:    0.2128    magn:    0.0000    constr:    0.0000
     atom:    2    charge:    0.2138    magn:   -0.0000    constr:    0.0000
     atom:    3    charge:    1.7155    magn:    0.0001    constr:    0.0000
     atom:    4    charge:    1.7152    magn:   -0.0001    constr:    0.0000
     atom:    5    charge:    1.7167    magn:    0.0000    constr:    0.0000
     atom:    6    charge:    1.7146    magn:   -0.0000    constr:    0.0000
     atom:    7    charge:    1.7168    magn:   -0.0000    constr:    0.0000
     atom:    8    charge:    1.7152    magn:    0.0000    constr:    0.0000
     atom:    9    charge:    1.7155    magn:    0.0000    constr:    0.0000
     atom:   10    charge:    1.7176    magn:   -0.0000    constr:    0.0000
     atom:   11    charge:    1.7155    magn:    0.0001    constr:    0.0000
     atom:   12    charge:    1.7177    magn:   -0.0001    constr:    0.0000
     atom:   13    charge:    1.7155    magn:    0.0001    constr:    0.0000
     atom:   14    charge:    1.7175    magn:   -0.0001    constr:    0.0000
     atom:   15    charge:    1.7117    magn:    0.0001    constr:    0.0000
     atom:   16    charge:    1.7112    magn:   -0.0001    constr:    0.0000
     atom:   17    charge:    1.7206    magn:    0.0000    constr:    0.0000
     atom:   18    charge:    1.7113    magn:   -0.0000    constr:    0.0000
     atom:   19    charge:    1.7117    magn:   -0.0000    constr:    0.0000
     atom:   20    charge:    1.7175    magn:    0.0000    constr:    0.0000
     atom:   21    charge:    1.7156    magn:    0.0000    constr:    0.0000
     atom:   22    charge:    1.7176    magn:   -0.0000    constr:    0.0000
     atom:   23    charge:    1.7155    magn:    0.0000    constr:    0.0000
     atom:   24    charge:    1.7152    magn:   -0.0000    constr:    0.0000
     atom:   25    charge:    1.7116    magn:    0.0000    constr:    0.0000
     atom:   26    charge:    1.7122    magn:   -0.0001    constr:    0.0000
     atom:   27    charge:    1.8194    magn:    0.0000    constr:    0.0000
     atom:   28    charge:   13.4061    magn:    0.0002    constr:    0.0000
     atom:   29    charge:    1.8183    magn:   -0.0000    constr:    0.0000
     atom:   30    charge:    1.7113    magn:   -0.0000    constr:    0.0000
     atom:   31    charge:    1.7117    magn:   -0.0000    constr:    0.0000
     atom:   32    charge:    1.7152    magn:    0.0000    constr:    0.0000
     atom:   33    charge:    1.7168    magn:   -0.0000    constr:    0.0000
     atom:   34    charge:    1.7154    magn:    0.0000    constr:    0.0000
     atom:   35    charge:    1.7167    magn:   -0.0000    constr:    0.0000
     atom:   36    charge:    1.7145    magn:   -0.0000    constr:    0.0000
     atom:   37    charge:    1.7211    magn:    0.0000    constr:    0.0000
     atom:   38    charge:    1.7122    magn:   -0.0001    constr:    0.0000
     atom:   39    charge:    1.8194    magn:    0.0000    constr:    0.0000
     atom:   40    charge:    1.7112    magn:   -0.0001    constr:    0.0000
     atom:   41    charge:    1.7206    magn:    0.0000    constr:    0.0000
     atom:   42    charge:    1.7146    magn:   -0.0000    constr:    0.0000
     atom:   43    charge:    1.7167    magn:    0.0000    constr:    0.0000
     atom:   44    charge:    1.7154    magn:   -0.0000    constr:    0.0000
     atom:   45    charge:    1.7211    magn:    0.0000    constr:    0.0000
     atom:   46    charge:    1.7154    magn:    0.0000    constr:    0.0000
     atom:   47    charge:    1.7167    magn:   -0.0000    constr:    0.0000
     atom:   48    charge:    1.7152    magn:   -0.0000    constr:    0.0000
     atom:   49    charge:    1.7116    magn:    0.0000    constr:    0.0000
     atom:   50    charge:    1.7175    magn:   -0.0001    constr:    0.0000
     atom:   51    charge:    1.7117    magn:    0.0001    constr:    0.0000
     atom:   52    charge:    1.7152    magn:   -0.0001    constr:    0.0000

     total cpu time spent up to now is     3413.9 secs

     End of self-consistent calculation

 ------ SPIN UP ------------


          k = 0.0000 0.0000 0.0000 ( 87777 PWs)   bands (ev):

  -107.9134 -69.0838 -69.0826 -66.9971 -19.8327 -19.0150 -19.0106 -18.8947
   -18.8925 -18.8087 -18.7454 -17.1688 -17.1665 -17.1323 -17.0926 -17.0825
   -16.7596 -16.3180 -16.3158 -16.1752 -16.1700 -16.1573 -15.6770 -14.3173
   -14.3144 -14.1549 -14.0212 -14.0203 -13.5205 -13.1362 -13.1326 -13.0819
   -12.9111 -12.9046 -12.5058 -12.0803 -12.0801 -11.7190 -11.5761 -11.5727
   -10.9398 -10.4353 -10.4350  -9.5828  -9.3727  -9.3696  -9.2310  -9.2164
    -9.2162  -9.2018  -8.9615  -8.9567  -8.5983  -8.5964  -8.4601  -8.1182
    -7.9063  -7.9062  -7.8556  -7.6712  -7.5515  -7.5452  -7.4529  -7.4523
    -7.0582  -6.8507  -6.8254  -6.8176  -6.7505  -6.6251  -6.6226  -6.5601
    -6.5550  -6.5548  -6.5217  -6.4364  -6.4280  -6.3947  -6.2953  -6.2932
    -6.0563  -5.5511  -5.5508  -5.0350  -4.9543  -4.8479  -4.8470  -4.7621
    -4.7205  -4.6986  -4.4186  -4.4025  -4.3791  -3.8427  -3.8369  -3.7698
    -3.7639  -3.7636  -3.6493  -3.4279  -3.4115  -3.3211  -1.8992  -1.8109
    -1.8100  -1.6041  -1.5940  -1.1704   0.0966   0.1012   0.8953   0.9521
     0.9591   1.2065   1.2074   1.5456   2.4930   2.7919   2.7973   2.8436
     3.0269   3.0334   3.4589   3.6314   3.6618   3.7307   3.7350   3.7583
     3.9217   4.2083

     occupation numbers 
     1.0000   1.0000   1.0000   1.0000   1.0000   1.0000   1.0000   1.0000
     1.0000   1.0000   1.0000   1.0000   1.0000   1.0000   1.0000   1.0000
     1.0000   1.0000   1.0000   1.0000   1.0000   1.0000   1.0000   1.0000
     1.0000   1.0000   1.0000   1.0000   1.0000   1.0000   1.0000   1.0000
     1.0000   1.0000   1.0000   1.0000   1.0000   1.0000   1.0000   1.0000
     1.0000   1.0000   1.0000   1.0000   1.0000   1.0000   1.0000   1.0000
     1.0000   1.0000   1.0000   1.0000   1.0000   1.0000   1.0000   1.0000
     1.0000   1.0000   1.0000   1.0000   1.0000   1.0000   1.0000   1.0000
     1.0000   1.0000   1.0000   1.0000   1.0000   1.0000   1.0000   1.0000
     1.0000   1.0000   1.0000   1.0000   1.0000   1.0000   1.0000   1.0000
     1.0000   1.0000   1.0000   1.0000   1.0000   1.0000   1.0000   1.0000
     1.0000   1.0000   1.0000   1.0000   1.0000   1.0000   1.0000   1.0000
     1.0000   1.0000   1.0000   1.0000   1.0000   1.0000   1.0000   1.0000
     1.0000   1.0000   1.0000   1.0000   0.0000   0.0000   0.0000   0.0000
     0.0000   0.0000   0.0000   0.0000   0.0000   0.0000   0.0000   0.0000
     0.0000   0.0000   0.0000   0.0000   0.0000   0.0000   0.0000   0.0000
     0.0000   0.0000

 ------ SPIN DOWN ----------


          k = 0.0000 0.0000 0.0000 ( 87777 PWs)   bands (ev):

  -107.9128 -69.0831 -69.0819 -66.9965 -19.8327 -19.0150 -19.0106 -18.8947
   -18.8925 -18.8087 -18.7455 -17.1688 -17.1666 -17.1324 -17.0926 -17.0826
   -16.7596 -16.3181 -16.3158 -16.1753 -16.1701 -16.1573 -15.6770 -14.3173
   -14.3144 -14.1549 -14.0211 -14.0203 -13.5205 -13.1362 -13.1326 -13.0819
   -12.9111 -12.9046 -12.5059 -12.0803 -12.0801 -11.7190 -11.5760 -11.5727
   -10.9398 -10.4352 -10.4349  -9.5828  -9.3727  -9.3696  -9.2310  -9.2164
    -9.2163  -9.2018  -8.9615  -8.9567  -8.5983  -8.5964  -8.4601  -8.1182
    -7.9063  -7.9061  -7.8554  -7.6712  -7.5516  -7.5452  -7.4529  -7.4522
    -7.0582  -6.8507  -6.8255  -6.8176  -6.7505  -6.6251  -6.6226  -6.5601
    -6.5550  -6.5548  -6.5217  -6.4362  -6.4279  -6.3946  -6.2953  -6.2932
    -6.0563  -5.5511  -5.5508  -5.0350  -4.9543  -4.8479  -4.8470  -4.7622
    -4.7205  -4.6986  -4.4186  -4.4025  -4.3791  -3.8427  -3.8370  -3.7698
    -3.7639  -3.7636  -3.6492  -3.4280  -3.4115  -3.3210  -1.8994  -1.8107
    -1.8100  -1.6041  -1.5941  -1.1703   0.0966   0.1012   0.8952   0.9523
     0.9590   1.2067   1.2073   1.5455   2.4931   2.7918   2.7973   2.8436
     3.0270   3.0334   3.4589   3.6314   3.6618   3.7307   3.7350   3.7584
     3.9217   4.2083

     occupation numbers 
     1.0000   1.0000   1.0000   1.0000   1.0000   1.0000   1.0000   1.0000
     1.0000   1.0000   1.0000   1.0000   1.0000   1.0000   1.0000   1.0000
     1.0000   1.0000   1.0000   1.0000   1.0000   1.0000   1.0000   1.0000
     1.0000   1.0000   1.0000   1.0000   1.0000   1.0000   1.0000   1.0000
     1.0000   1.0000   1.0000   1.0000   1.0000   1.0000   1.0000   1.0000
     1.0000   1.0000   1.0000   1.0000   1.0000   1.0000   1.0000   1.0000
     1.0000   1.0000   1.0000   1.0000   1.0000   1.0000   1.0000   1.0000
     1.0000   1.0000   1.0000   1.0000   1.0000   1.0000   1.0000   1.0000
     1.0000   1.0000   1.0000   1.0000   1.0000   1.0000   1.0000   1.0000
     1.0000   1.0000   1.0000   1.0000   1.0000   1.0000   1.0000   1.0000
     1.0000   1.0000   1.0000   1.0000   1.0000   1.0000   1.0000   1.0000
     1.0000   1.0000   1.0000   1.0000   1.0000   1.0000   1.0000   1.0000
     1.0000   1.0000   1.0000   1.0000   1.0000   1.0000   1.0000   1.0000
     1.0000   1.0000   1.0000   1.0000   0.0000   0.0000   0.0000   0.0000
     0.0000   0.0000   0.0000   0.0000   0.0000   0.0000   0.0000   0.0000
     0.0000   0.0000   0.0000   0.0000   0.0000   0.0000   0.0000   0.0000
     0.0000   0.0000

     the Fermi energy is    -1.0227 ev

!    total energy              =    -951.87443197 Ry
     Harris-Foulkes estimate   =    -951.87443200 Ry
     estimated scf accuracy    <       0.00000013 Ry

     The total energy is the sum of the following terms:

     one-electron contribution =   -2994.52423084 Ry
     hartree contribution      =    1539.90240842 Ry
     xc contribution           =    -265.76448178 Ry
     ewald contribution        =     768.51187223 Ry
     smearing contrib. (-TS)   =       0.00000000 Ry

     total magnetization       =     0.00 Bohr mag/cell
     absolute magnetization    =     0.00 Bohr mag/cell

     convergence has been achieved in  32 iterations

     Writing output data file distance-2.0.save/

     init_run     :     73.40s CPU     74.57s WALL (       1 calls)
     electrons    :   3281.07s CPU   3338.36s WALL (       1 calls)

     Called by init_run:
     wfcinit      :     43.52s CPU     43.80s WALL (       1 calls)
     wfcinit:atom :      0.07s CPU      0.10s WALL (       2 calls)
     wfcinit:wfcr :     43.08s CPU     43.29s WALL (       2 calls)
     potinit      :     12.49s CPU     12.88s WALL (       1 calls)
     hinit0       :      8.57s CPU      8.60s WALL (       1 calls)

     Called by electrons:
     c_bands      :   2097.70s CPU   2107.98s WALL (      32 calls)
     sum_band     :    689.69s CPU    708.87s WALL (      32 calls)
     v_of_rho     :    243.55s CPU    255.19s WALL (      33 calls)
     v_h          :      2.50s CPU      2.57s WALL (      33 calls)
     v_xc         :    241.05s CPU    252.62s WALL (      33 calls)
     newd         :    242.10s CPU    258.65s WALL (      33 calls)
     mix_rho      :     15.15s CPU     15.36s WALL (      32 calls)

     Called by c_bands:
     init_us_2    :      6.37s CPU      6.41s WALL (     130 calls)
     cegterg      :   2081.93s CPU   2092.11s WALL (      64 calls)

     Called by sum_band:
     sum_band:bec :      0.05s CPU      0.05s WALL (      64 calls)
     addusdens    :    422.66s CPU    440.17s WALL (      32 calls)

     Called by *egterg:
     h_psi        :   1104.54s CPU   1111.57s WALL (     246 calls)
     s_psi        :    374.19s CPU    374.41s WALL (     246 calls)
     g_psi        :      1.18s CPU      1.18s WALL (     180 calls)
     cdiaghg      :     16.66s CPU     16.67s WALL (     244 calls)
     cegterg:over :    249.78s CPU    249.90s WALL (     180 calls)
     cegterg:upda :    151.25s CPU    152.13s WALL (     180 calls)
     cegterg:last :    111.63s CPU    111.66s WALL (      64 calls)

     Called by h_psi:
     h_psi:pot    :   1103.27s CPU   1109.02s WALL (     246 calls)
     h_psi:calbec :    370.38s CPU    370.55s WALL (     246 calls)
     vloc_psi     :    358.70s CPU    364.11s WALL (     246 calls)
     add_vuspsi   :    374.19s CPU    374.35s WALL (     246 calls)

     General routines
     calbec       :    532.23s CPU    532.47s WALL (     310 calls)
     fft          :    138.74s CPU    143.48s WALL (    2469 calls)
     ffts         :      2.41s CPU      2.51s WALL (     130 calls)
     fftw         :    380.24s CPU    386.16s WALL (   46496 calls)
     interpolate  :      5.83s CPU      5.99s WALL (      66 calls)

     Parallel routines
     fft_scatt_xy :     93.92s CPU     94.92s WALL (   49095 calls)
     fft_scatt_yz :    170.19s CPU    177.88s WALL (   49095 calls)

     PWSCF        :  55m55.76s CPU  56m54.61s WALL


   This run was terminated on:   6:31:47  30Dec2022            

=------------------------------------------------------------------------------=
   JOB DONE.
=------------------------------------------------------------------------------=
