
     Program PWSCF v.6.4.1 starts on  6Sep2022 at 19:31:22 

     This program is part of the open-source Quantum ESPRESSO suite
     for quantum simulation of materials; please cite
         "P. Giannozzi et al., J. Phys.:Condens. Matter 21 395502 (2009);
         "P. Giannozzi et al., J. Phys.:Condens. Matter 29 465901 (2017);
          URL http://www.quantum-espresso.org", 
     in publications or presentations arising from this work. More details at
     http://www.quantum-espresso.org/quote

     Parallel version (MPI), running on     6 processors

     MPI processes distributed on     1 nodes
     R & G space division:  proc/nbgrp/npool/nimage =       6
     Reading input from distance-5.0.in

     Current dimensions of program PWSCF are:
     Max number of different atomic species (ntypx) = 10
     Max number of k-points (npk) =  40000
     Max angular momentum in pseudopotentials (lmaxx) =  3

     IMPORTANT: XC functional enforced from input :
     Exchange-correlation      = RVV10 ( 1  4 13  4 3 0)
     Any further DFT definition will be discarded
     Please, verify this is what you really want

               file H.pbe-rrkjus.UPF: wavefunction(s)  1S renormalized
               file Cu.pbe-dn-rrkjus_psl.1.0.0.UPF: wavefunction(s)  3D renormalized

     Subspace diagonalization in iterative solution of the eigenvalue problem:
     a serial algorithm will be used


     Parallelization info
     --------------------
     sticks:   dense  smooth     PW     G-vecs:    dense   smooth      PW
     Min        3051    1746    432               270999   117096   14629
     Max        3053    1747    437               271001   117099   14630
     Sum       18313   10477   2611              1626001   702581   87777



     bravais-lattice index     =            4
     lattice parameter (alat)  =      23.2937  a.u.
     unit-cell volume          =    8879.8548 (a.u.)^3
     number of atoms/cell      =           52
     number of atomic types    =            3
     number of electrons       =       209.00
     number of Kohn-Sham states=          126
     kinetic-energy cutoff     =      70.0000  Ry
     charge density cutoff     =     490.0000  Ry
     convergence threshold     =      1.0E-06
     mixing beta               =       0.7000
     number of iterations used =            8  plain     mixing
     Exchange-correlation      = RVV10 ( 1  4 13  4 3 0)

     celldm(1)=  23.293684  celldm(2)=   0.000000  celldm(3)=   0.811261
     celldm(4)=   0.000000  celldm(5)=   0.000000  celldm(6)=   0.000000

     crystal axes: (cart. coord. in units of alat)
               a(1) = (   1.000000   0.000000   0.000000 )  
               a(2) = (  -0.500000   0.866025   0.000000 )  
               a(3) = (   0.000000   0.000000   0.811261 )  

     reciprocal axes: (cart. coord. in units 2 pi/alat)
               b(1) = (  1.000000  0.577350 -0.000000 )  
               b(2) = (  0.000000  1.154701  0.000000 )  
               b(3) = (  0.000000 -0.000000  1.232649 )  


     PseudoPot. # 1 for H  read from file:
     /home/cristian/Escritorio/Proyecto_Grafeno/pseudopotenciales/H.pbe-rrkjus.UPF
     MD5 check sum: 7cc9d459525c9a0585f487a71c3c9563
     Pseudo is Ultrasoft, Zval =  1.0
     Generated by new atomic code, or converted to UPF format
     Using radial grid of 1061 points,  2 beta functions with: 
                l(1) =   0
                l(2) =   0
     Q(r) pseudized with 0 coefficients 


     PseudoPot. # 2 for C  read from file:
     /home/cristian/Escritorio/Proyecto_Grafeno/pseudopotenciales/C.pbe-n-rrkjus_psl.1.0.0.UPF
     MD5 check sum: 1fdd950c42eb37d8afe3dd2f8d12311e
     Pseudo is Ultrasoft + core correction, Zval =  4.0
     Generated using "atomic" code by A. Dal Corso v.6.3MaX
     Using radial grid of 1073 points,  4 beta functions with: 
                l(1) =   0
                l(2) =   0
                l(3) =   1
                l(4) =   1
     Q(r) pseudized with 0 coefficients 


     PseudoPot. # 3 for Cu read from file:
     /home/cristian/Escritorio/Proyecto_Grafeno/pseudopotenciales/Cu.pbe-dn-rrkjus_psl.1.0.0.UPF
     MD5 check sum: ba3d6c84e19846e79d48cdc68ff7152b
     Pseudo is Ultrasoft + core correction, Zval = 11.0
     Generated using "atomic" code by A. Dal Corso v.6.3
     Using radial grid of 1199 points,  6 beta functions with: 
                l(1) =   0
                l(2) =   0
                l(3) =   1
                l(4) =   1
                l(5) =   2
                l(6) =   2
     Q(r) pseudized with 0 coefficients 


     vdW kernel table read from file rVV10_kernel_table
     MD5 check sum: b8e2538accc0c0b3206b45ba4daaba6c

     atomic species   valence    mass     pseudopotential
        H              1.00     1.00794     H ( 1.00)
        C              4.00    12.01070     C ( 1.00)
        Cu            11.00    63.54600     Cu( 1.00)

     Starting magnetic structure 
     atomic species   magnetization
        H            0.500
        C            0.300
        Cu           0.800

      2 Sym. Ops. (no inversion) found


                                    s                        frac. trans.

      isym =  1     identity                                     

 cryst.   s( 1) = (     1          0          0      )
                  (     0          1          0      )
                  (     0          0          1      )

 cart.    s( 1) = (  1.0000000  0.0000000  0.0000000 )
                  (  0.0000000  1.0000000  0.0000000 )
                  (  0.0000000  0.0000000  1.0000000 )


      isym =  2     inv. 180 deg rotation - cart. axis [0,0,1]   

 cryst.   s( 2) = (     1          0          0      )
                  (     0          1          0      )
                  (     0          0         -1      )

 cart.    s( 2) = (  1.0000000  0.0000000  0.0000000 )
                  (  0.0000000  1.0000000  0.0000000 )
                  (  0.0000000  0.0000000 -1.0000000 )


     point group C_s (m)    
     there are  2 classes
     the character table:

       E     s    
A'     1.00  1.00
A''    1.00 -1.00

     the symmetry operations in each class and the name of the first element:

     E        1
          identity                                               
     s        2
          inv. 180 deg rotation - cart. axis [0,0,1]             

   Cartesian axes

     site n.     atom                  positions (alat units)
         1           H   tau(   1) = (   0.1694937   0.4618802   0.4056306  )
         2           H   tau(   2) = (   0.2305063   0.4618802   0.4056306  )
         3           C   tau(   3) = (   0.0000000   0.0000000   0.0000000  )
         4           C   tau(   4) = (   0.0000000   0.1154701   0.0000000  )
         5           C   tau(   5) = (  -0.1000000   0.1732051   0.0000000  )
         6           C   tau(   6) = (  -0.1000000   0.2886751   0.0000000  )
         7           C   tau(   7) = (  -0.2000000   0.3464102   0.0000000  )
         8           C   tau(   8) = (  -0.2000000   0.4618802   0.0000000  )
         9           C   tau(   9) = (  -0.3000000   0.5196152   0.0000000  )
        10           C   tau(  10) = (  -0.3000000   0.6350853   0.0000000  )
        11           C   tau(  11) = (  -0.4000000   0.6928203   0.0000000  )
        12           C   tau(  12) = (  -0.4000000   0.8082904   0.0000000  )
        13           C   tau(  13) = (   0.2000000   0.0000000   0.0000000  )
        14           C   tau(  14) = (   0.2000000   0.1154701   0.0000000  )
        15           C   tau(  15) = (   0.1000000   0.1732051   0.0000000  )
        16           C   tau(  16) = (   0.1000000   0.2886751   0.0000000  )
        17           C   tau(  17) = (   0.0000000   0.3464102   0.0000000  )
        18           C   tau(  18) = (   0.0000000   0.4618802   0.0000000  )
        19           C   tau(  19) = (  -0.1000000   0.5196152   0.0000000  )
        20           C   tau(  20) = (  -0.1000000   0.6350853   0.0000000  )
        21           C   tau(  21) = (  -0.2000000   0.6928203   0.0000000  )
        22           C   tau(  22) = (  -0.2000000   0.8082904   0.0000000  )
        23           C   tau(  23) = (   0.4000000   0.0000000   0.0000000  )
        24           C   tau(  24) = (   0.4000000   0.1154701   0.0000000  )
        25           C   tau(  25) = (   0.3000000   0.1732051   0.0000000  )
        26           C   tau(  26) = (   0.3000000   0.2886751   0.0000000  )
        27           C   tau(  27) = (   0.2000000   0.3464102   0.0000000  )
        28           Cu  tau(  28) = (   0.2000000   0.4618802   0.0000000  )
        29           C   tau(  29) = (   0.1000000   0.5196152   0.0000000  )
        30           C   tau(  30) = (   0.1000000   0.6350853   0.0000000  )
        31           C   tau(  31) = (   0.0000000   0.6928203   0.0000000  )
        32           C   tau(  32) = (   0.0000000   0.8082904   0.0000000  )
        33           C   tau(  33) = (   0.6000000   0.0000000   0.0000000  )
        34           C   tau(  34) = (   0.6000000   0.1154701   0.0000000  )
        35           C   tau(  35) = (   0.5000000   0.1732051   0.0000000  )
        36           C   tau(  36) = (   0.5000000   0.2886751   0.0000000  )
        37           C   tau(  37) = (   0.4000000   0.3464102   0.0000000  )
        38           C   tau(  38) = (   0.4000000   0.4618802   0.0000000  )
        39           C   tau(  39) = (   0.3000000   0.5196152   0.0000000  )
        40           C   tau(  40) = (   0.3000000   0.6350853   0.0000000  )
        41           C   tau(  41) = (   0.2000000   0.6928203   0.0000000  )
        42           C   tau(  42) = (   0.2000000   0.8082904   0.0000000  )
        43           C   tau(  43) = (   0.8000000   0.0000000   0.0000000  )
        44           C   tau(  44) = (   0.8000000   0.1154701   0.0000000  )
        45           C   tau(  45) = (   0.7000000   0.1732051   0.0000000  )
        46           C   tau(  46) = (   0.7000000   0.2886751   0.0000000  )
        47           C   tau(  47) = (   0.6000000   0.3464102   0.0000000  )
        48           C   tau(  48) = (   0.6000000   0.4618802   0.0000000  )
        49           C   tau(  49) = (   0.5000000   0.5196152   0.0000000  )
        50           C   tau(  50) = (   0.5000000   0.6350853   0.0000000  )
        51           C   tau(  51) = (   0.4000000   0.6928203   0.0000000  )
        52           C   tau(  52) = (   0.4000000   0.8082904   0.0000000  )

   Crystallographic axes

     site n.     atom                  positions (cryst. coord.)
         1           H   tau(   1) = (  0.4361603  0.5333333  0.5000000  )
         2           H   tau(   2) = (  0.4971730  0.5333333  0.5000000  )
         3           C   tau(   3) = (  0.0000000  0.0000000  0.0000000  )
         4           C   tau(   4) = (  0.0666667  0.1333333  0.0000000  )
         5           C   tau(   5) = (  0.0000000  0.2000000  0.0000000  )
         6           C   tau(   6) = (  0.0666667  0.3333333  0.0000000  )
         7           C   tau(   7) = (  0.0000000  0.4000000  0.0000000  )
         8           C   tau(   8) = (  0.0666667  0.5333333  0.0000000  )
         9           C   tau(   9) = (  0.0000000  0.6000000  0.0000000  )
        10           C   tau(  10) = (  0.0666667  0.7333333  0.0000000  )
        11           C   tau(  11) = (  0.0000000  0.8000000  0.0000000  )
        12           C   tau(  12) = (  0.0666667  0.9333333  0.0000000  )
        13           C   tau(  13) = (  0.2000000  0.0000000  0.0000000  )
        14           C   tau(  14) = (  0.2666667  0.1333333  0.0000000  )
        15           C   tau(  15) = (  0.2000000  0.2000000  0.0000000  )
        16           C   tau(  16) = (  0.2666667  0.3333333  0.0000000  )
        17           C   tau(  17) = (  0.2000000  0.4000000  0.0000000  )
        18           C   tau(  18) = (  0.2666667  0.5333333  0.0000000  )
        19           C   tau(  19) = (  0.2000000  0.6000000  0.0000000  )
        20           C   tau(  20) = (  0.2666667  0.7333333  0.0000000  )
        21           C   tau(  21) = (  0.2000000  0.8000000  0.0000000  )
        22           C   tau(  22) = (  0.2666667  0.9333333  0.0000000  )
        23           C   tau(  23) = (  0.4000000  0.0000000  0.0000000  )
        24           C   tau(  24) = (  0.4666667  0.1333333  0.0000000  )
        25           C   tau(  25) = (  0.4000000  0.2000000  0.0000000  )
        26           C   tau(  26) = (  0.4666667  0.3333333  0.0000000  )
        27           C   tau(  27) = (  0.4000000  0.4000000  0.0000000  )
        28           Cu  tau(  28) = (  0.4666667  0.5333333  0.0000000  )
        29           C   tau(  29) = (  0.4000000  0.6000000  0.0000000  )
        30           C   tau(  30) = (  0.4666667  0.7333333  0.0000000  )
        31           C   tau(  31) = (  0.4000000  0.8000000  0.0000000  )
        32           C   tau(  32) = (  0.4666667  0.9333333  0.0000000  )
        33           C   tau(  33) = (  0.6000000  0.0000000  0.0000000  )
        34           C   tau(  34) = (  0.6666667  0.1333333  0.0000000  )
        35           C   tau(  35) = (  0.6000000  0.2000000  0.0000000  )
        36           C   tau(  36) = (  0.6666667  0.3333333  0.0000000  )
        37           C   tau(  37) = (  0.6000000  0.4000000  0.0000000  )
        38           C   tau(  38) = (  0.6666667  0.5333333  0.0000000  )
        39           C   tau(  39) = (  0.6000000  0.6000000  0.0000000  )
        40           C   tau(  40) = (  0.6666667  0.7333333  0.0000000  )
        41           C   tau(  41) = (  0.6000000  0.8000000  0.0000000  )
        42           C   tau(  42) = (  0.6666667  0.9333333  0.0000000  )
        43           C   tau(  43) = (  0.8000000  0.0000000  0.0000000  )
        44           C   tau(  44) = (  0.8666667  0.1333333  0.0000000  )
        45           C   tau(  45) = (  0.8000000  0.2000000  0.0000000  )
        46           C   tau(  46) = (  0.8666667  0.3333333  0.0000000  )
        47           C   tau(  47) = (  0.8000000  0.4000000  0.0000000  )
        48           C   tau(  48) = (  0.8666667  0.5333333  0.0000000  )
        49           C   tau(  49) = (  0.8000000  0.6000000  0.0000000  )
        50           C   tau(  50) = (  0.8666667  0.7333333  0.0000000  )
        51           C   tau(  51) = (  0.8000000  0.8000000  0.0000000  )
        52           C   tau(  52) = (  0.8666667  0.9333333  0.0000000  )

     number of k points=     1  Marzari-Vanderbilt smearing, width (Ry)=  0.0010
                       cart. coord. in units 2pi/alat
        k(    1) = (   0.0000000   0.0000000   0.0000000), wk =   1.0000000

                       cryst. coord.
        k(    1) = (   0.0000000   0.0000000   0.0000000), wk =   1.0000000

     Dense  grid:  1626001 G-vectors     FFT dimensions: ( 180, 180, 135)

     Smooth grid:   702581 G-vectors     FFT dimensions: ( 125, 125, 108)

     Dynamical RAM for                 wfc:      28.14 MB

     Dynamical RAM for     wfc (w. buffer):      84.42 MB

     Dynamical RAM for           str. fact:      12.41 MB

     Dynamical RAM for           local pot:       0.00 MB

     Dynamical RAM for          nlocal pot:      92.46 MB

     Dynamical RAM for                qrad:      19.73 MB

     Dynamical RAM for          rho,v,vnew:      58.92 MB

     Dynamical RAM for               rhoin:      19.64 MB

     Dynamical RAM for            rho*nmix:     132.32 MB

     Dynamical RAM for           G-vectors:      16.40 MB

     Dynamical RAM for          h,s,v(r/c):      11.63 MB

     Dynamical RAM for          <psi|beta>:       0.80 MB

     Dynamical RAM for                 psi:     112.56 MB

     Dynamical RAM for                hpsi:     112.56 MB

     Dynamical RAM for                spsi:     112.56 MB

     Dynamical RAM for      wfcinit/wfcrot:      93.45 MB

     Dynamical RAM for           addusdens:     975.89 MB

     Estimated static dynamical RAM per process >     486.96 MB

     Estimated max dynamical RAM per process >       1.43 GB

     Estimated total dynamical RAM >       8.57 GB
     Generating pointlists ...
     new r_m :   0.0252 (alat units)  0.5862 (a.u.) for type    1
     new r_m :   0.0476 (alat units)  1.1095 (a.u.) for type    2
     new r_m :   0.0476 (alat units)  1.1095 (a.u.) for type    3

     Check: negative core charge=   -0.000002

     Initial potential from superposition of free atoms

     starting charge  208.80532, renormalised to  209.00000

     negative rho (up, down):  5.329E-05 7.603E-03


---------------------------------------------------------------------------------
Carrying out rVV10 run using the following parameters:
Nqs =      20    Nr_points =    1024   r_max =   100.000
b_value =  6.30000    beta =  0.00901
     q_mesh =  0.00010000  0.00030000  0.00058939  0.00100810
               0.00161396  0.00249058  0.00375900  0.00559430
               0.00824984  0.01209221  0.01765183  0.02569619
               0.03733578  0.05417739  0.07854596  0.11380545
               0.16482331  0.23864234  0.34545298  0.50000000

Gradients computed in Reciprocal space

---------------------------------------------------------------------------------


     Starting wfcs are  207 randomized atomic wfcs

     total cpu time spent up to now is       71.0 secs

     Self-consistent Calculation

     iteration #  1     ecut=    70.00 Ry     beta= 0.70
     Davidson diagonalization with overlap
     ethr =  1.00E-02,  avg # of iterations =  3.0

     negative rho (up, down):  1.083E-04 8.088E-03

     total cpu time spent up to now is      206.5 secs

     total energy              =    -726.89327412 Ry
     Harris-Foulkes estimate   =    -734.97045221 Ry
     estimated scf accuracy    <      14.84505114 Ry

     total magnetization       =     7.00 Bohr mag/cell
     absolute magnetization    =     7.38 Bohr mag/cell

     iteration #  2     ecut=    70.00 Ry     beta= 0.70
     Davidson diagonalization with overlap
     ethr =  7.10E-03,  avg # of iterations =  4.5

     negative rho (up, down):  1.145E-04 7.033E-03

     total cpu time spent up to now is      332.4 secs

     total energy              =    -726.74005047 Ry
     Harris-Foulkes estimate   =    -745.94725731 Ry
     estimated scf accuracy    <      52.85900444 Ry

     total magnetization       =     1.05 Bohr mag/cell
     absolute magnetization    =     1.80 Bohr mag/cell

     iteration #  3     ecut=    70.00 Ry     beta= 0.70
     Davidson diagonalization with overlap
     ethr =  7.10E-03,  avg # of iterations =  4.0

     negative rho (up, down):  1.390E-04 6.385E-03

     total cpu time spent up to now is      442.0 secs

     total energy              =    -731.87526092 Ry
     Harris-Foulkes estimate   =    -736.60782570 Ry
     estimated scf accuracy    <      13.83417449 Ry

     total magnetization       =     3.00 Bohr mag/cell
     absolute magnetization    =     3.22 Bohr mag/cell

     iteration #  4     ecut=    70.00 Ry     beta= 0.70
     Davidson diagonalization with overlap
     ethr =  6.62E-03,  avg # of iterations =  3.0

     negative rho (up, down):  1.759E-04 7.303E-03

     total cpu time spent up to now is      537.3 secs

     total energy              =    -733.77736409 Ry
     Harris-Foulkes estimate   =    -734.87170975 Ry
     estimated scf accuracy    <       4.78867590 Ry

     total magnetization       =     3.00 Bohr mag/cell
     absolute magnetization    =     3.15 Bohr mag/cell

     iteration #  5     ecut=    70.00 Ry     beta= 0.70
     Davidson diagonalization with overlap
     ethr =  2.29E-03,  avg # of iterations =  2.5

     negative rho (up, down):  2.130E-04 1.059E-02

     total cpu time spent up to now is      634.2 secs

     total energy              =    -734.29322850 Ry
     Harris-Foulkes estimate   =    -735.10052913 Ry
     estimated scf accuracy    <       3.87312092 Ry

     total magnetization       =     1.00 Bohr mag/cell
     absolute magnetization    =     1.43 Bohr mag/cell

     iteration #  6     ecut=    70.00 Ry     beta= 0.70
     Davidson diagonalization with overlap
     ethr =  1.85E-03,  avg # of iterations =  2.0

     negative rho (up, down):  3.079E-04 1.508E-02

     total cpu time spent up to now is      730.5 secs

     total energy              =    -734.71473504 Ry
     Harris-Foulkes estimate   =    -734.76025070 Ry
     estimated scf accuracy    <       0.13645410 Ry

     total magnetization       =     1.00 Bohr mag/cell
     absolute magnetization    =     1.34 Bohr mag/cell

     iteration #  7     ecut=    70.00 Ry     beta= 0.70
     Davidson diagonalization with overlap
     ethr =  6.53E-05,  avg # of iterations =  5.5

     negative rho (up, down):  4.275E-04 1.053E-02

     total cpu time spent up to now is      848.9 secs

     total energy              =    -734.72917947 Ry
     Harris-Foulkes estimate   =    -734.78044907 Ry
     estimated scf accuracy    <       0.16482388 Ry

     total magnetization       =     1.00 Bohr mag/cell
     absolute magnetization    =     1.24 Bohr mag/cell

     iteration #  8     ecut=    70.00 Ry     beta= 0.70
     Davidson diagonalization with overlap
     ethr =  6.53E-05,  avg # of iterations =  3.0

     negative rho (up, down):  4.861E-04 5.855E-03

     total cpu time spent up to now is      951.1 secs

     total energy              =    -734.74927641 Ry
     Harris-Foulkes estimate   =    -734.76646788 Ry
     estimated scf accuracy    <       0.07312816 Ry

     total magnetization       =     1.00 Bohr mag/cell
     absolute magnetization    =     1.20 Bohr mag/cell

     iteration #  9     ecut=    70.00 Ry     beta= 0.70
     Davidson diagonalization with overlap
     ethr =  3.50E-05,  avg # of iterations =  2.5

     negative rho (up, down):  5.596E-04 2.583E-03

     total cpu time spent up to now is     1044.5 secs

     total energy              =    -734.75571938 Ry
     Harris-Foulkes estimate   =    -734.76009941 Ry
     estimated scf accuracy    <       0.03612166 Ry

     total magnetization       =     1.00 Bohr mag/cell
     absolute magnetization    =     1.17 Bohr mag/cell

     iteration # 10     ecut=    70.00 Ry     beta= 0.70
     Davidson diagonalization with overlap
     ethr =  1.73E-05,  avg # of iterations =  1.0

     negative rho (up, down):  5.619E-04 2.221E-03

     total cpu time spent up to now is     1136.3 secs

     total energy              =    -734.75721843 Ry
     Harris-Foulkes estimate   =    -734.75801876 Ry
     estimated scf accuracy    <       0.00727365 Ry

     total magnetization       =     1.00 Bohr mag/cell
     absolute magnetization    =     1.12 Bohr mag/cell

     iteration # 11     ecut=    70.00 Ry     beta= 0.70
     Davidson diagonalization with overlap
     ethr =  3.48E-06,  avg # of iterations = 15.5

     negative rho (up, down):  5.667E-04 3.144E-03

     total cpu time spent up to now is     1241.6 secs

     total energy              =    -734.75721645 Ry
     Harris-Foulkes estimate   =    -734.75909022 Ry
     estimated scf accuracy    <       0.02745066 Ry

     total magnetization       =     1.00 Bohr mag/cell
     absolute magnetization    =     1.13 Bohr mag/cell

     iteration # 12     ecut=    70.00 Ry     beta= 0.70
     Davidson diagonalization with overlap
     ethr =  3.48E-06,  avg # of iterations =  1.0

     negative rho (up, down):  5.669E-04 2.101E-03

     total cpu time spent up to now is     1333.1 secs

     total energy              =    -734.75784090 Ry
     Harris-Foulkes estimate   =    -734.75802137 Ry
     estimated scf accuracy    <       0.00284274 Ry

     total magnetization       =     1.00 Bohr mag/cell
     absolute magnetization    =     1.10 Bohr mag/cell

     iteration # 13     ecut=    70.00 Ry     beta= 0.70
     Davidson diagonalization with overlap
     ethr =  1.36E-06,  avg # of iterations =  1.0

     negative rho (up, down):  5.649E-04 1.738E-03

     total cpu time spent up to now is     1424.5 secs

     total energy              =    -734.75792113 Ry
     Harris-Foulkes estimate   =    -734.75796315 Ry
     estimated scf accuracy    <       0.00057157 Ry

     total magnetization       =     1.00 Bohr mag/cell
     absolute magnetization    =     1.09 Bohr mag/cell

     iteration # 14     ecut=    70.00 Ry     beta= 0.70
     Davidson diagonalization with overlap
     ethr =  2.73E-07,  avg # of iterations =  2.0

     negative rho (up, down):  5.579E-04 1.419E-03

     total cpu time spent up to now is     1520.9 secs

     total energy              =    -734.75796045 Ry
     Harris-Foulkes estimate   =    -734.75797083 Ry
     estimated scf accuracy    <       0.00017428 Ry

     total magnetization       =     1.00 Bohr mag/cell
     absolute magnetization    =     1.08 Bohr mag/cell

     iteration # 15     ecut=    70.00 Ry     beta= 0.70
     Davidson diagonalization with overlap
     ethr =  8.34E-08,  avg # of iterations =  2.0

     negative rho (up, down):  5.585E-04 1.414E-03

     total cpu time spent up to now is     1618.1 secs

     total energy              =    -734.75796527 Ry
     Harris-Foulkes estimate   =    -734.75797582 Ry
     estimated scf accuracy    <       0.00012738 Ry

     total magnetization       =     1.00 Bohr mag/cell
     absolute magnetization    =     1.07 Bohr mag/cell

     iteration # 16     ecut=    70.00 Ry     beta= 0.70
     Davidson diagonalization with overlap
     ethr =  6.09E-08,  avg # of iterations =  2.0

     negative rho (up, down):  5.564E-04 1.429E-03

     total cpu time spent up to now is     1710.9 secs

     total energy              =    -734.75797180 Ry
     Harris-Foulkes estimate   =    -734.75797130 Ry
     estimated scf accuracy    <       0.00002707 Ry

     total magnetization       =     1.00 Bohr mag/cell
     absolute magnetization    =     1.07 Bohr mag/cell

     iteration # 17     ecut=    70.00 Ry     beta= 0.70
     Davidson diagonalization with overlap
     ethr =  1.30E-08,  avg # of iterations =  1.5

     negative rho (up, down):  5.559E-04 1.432E-03

     total cpu time spent up to now is     1803.8 secs

     total energy              =    -734.75797243 Ry
     Harris-Foulkes estimate   =    -734.75797327 Ry
     estimated scf accuracy    <       0.00005904 Ry

     total magnetization       =     1.00 Bohr mag/cell
     absolute magnetization    =     1.07 Bohr mag/cell

     iteration # 18     ecut=    70.00 Ry     beta= 0.70
     Davidson diagonalization with overlap
     ethr =  1.30E-08,  avg # of iterations =  1.0

     negative rho (up, down):  5.552E-04 1.425E-03

     total cpu time spent up to now is     1896.5 secs

     total energy              =    -734.75797313 Ry
     Harris-Foulkes estimate   =    -734.75797315 Ry
     estimated scf accuracy    <       0.00002263 Ry

     total magnetization       =     1.00 Bohr mag/cell
     absolute magnetization    =     1.07 Bohr mag/cell

     iteration # 19     ecut=    70.00 Ry     beta= 0.70
     Davidson diagonalization with overlap
     ethr =  1.08E-08,  avg # of iterations =  1.0

     negative rho (up, down):  5.548E-04 1.428E-03

     total cpu time spent up to now is     1989.3 secs

     total energy              =    -734.75797349 Ry
     Harris-Foulkes estimate   =    -734.75797361 Ry
     estimated scf accuracy    <       0.00001575 Ry

     total magnetization       =     1.00 Bohr mag/cell
     absolute magnetization    =     1.07 Bohr mag/cell

     iteration # 20     ecut=    70.00 Ry     beta= 0.70
     Davidson diagonalization with overlap
     ethr =  7.54E-09,  avg # of iterations =  1.0

     negative rho (up, down):  5.546E-04 1.435E-03

     total cpu time spent up to now is     2081.2 secs

     total energy              =    -734.75797355 Ry
     Harris-Foulkes estimate   =    -734.75797383 Ry
     estimated scf accuracy    <       0.00000498 Ry

     total magnetization       =     1.00 Bohr mag/cell
     absolute magnetization    =     1.07 Bohr mag/cell

     iteration # 21     ecut=    70.00 Ry     beta= 0.70
     Davidson diagonalization with overlap
     ethr =  2.38E-09,  avg # of iterations =  2.5

     negative rho (up, down):  5.547E-04 1.438E-03

     total cpu time spent up to now is     2176.5 secs

     total energy              =    -734.75797399 Ry
     Harris-Foulkes estimate   =    -734.75797415 Ry
     estimated scf accuracy    <       0.00000139 Ry

     total magnetization       =     1.00 Bohr mag/cell
     absolute magnetization    =     1.06 Bohr mag/cell

     iteration # 22     ecut=    70.00 Ry     beta= 0.70
     Davidson diagonalization with overlap
     ethr =  6.65E-10,  avg # of iterations =  1.5

     negative rho (up, down):  5.547E-04 1.437E-03

     total cpu time spent up to now is     2266.7 secs

     total energy              =    -734.75797411 Ry
     Harris-Foulkes estimate   =    -734.75797412 Ry
     estimated scf accuracy    <       0.00000235 Ry

     total magnetization       =     1.00 Bohr mag/cell
     absolute magnetization    =     1.06 Bohr mag/cell

     iteration # 23     ecut=    70.00 Ry     beta= 0.70
     Davidson diagonalization with overlap
     ethr =  6.65E-10,  avg # of iterations =  1.5

     negative rho (up, down):  5.546E-04 1.435E-03

     total cpu time spent up to now is     2357.4 secs

     total energy              =    -734.75797406 Ry
     Harris-Foulkes estimate   =    -734.75797419 Ry
     estimated scf accuracy    <       0.00000266 Ry

     total magnetization       =     1.00 Bohr mag/cell
     absolute magnetization    =     1.06 Bohr mag/cell

     iteration # 24     ecut=    70.00 Ry     beta= 0.70
     Davidson diagonalization with overlap
     ethr =  6.65E-10,  avg # of iterations =  1.5

     negative rho (up, down):  5.547E-04 1.434E-03

     total cpu time spent up to now is     2454.1 secs

     total energy              =    -734.75797413 Ry
     Harris-Foulkes estimate   =    -734.75797416 Ry
     estimated scf accuracy    <       0.00000130 Ry

     total magnetization       =     1.00 Bohr mag/cell
     absolute magnetization    =     1.06 Bohr mag/cell

     iteration # 25     ecut=    70.00 Ry     beta= 0.70
     Davidson diagonalization with overlap
     ethr =  6.20E-10,  avg # of iterations =  1.0

     negative rho (up, down):  5.548E-04 1.439E-03

     Magnetic moment per site:
     atom:    1    charge:    0.2109    magn:   -0.0000    constr:    0.0000
     atom:    2    charge:    0.2109    magn:   -0.0000    constr:    0.0000
     atom:    3    charge:    1.7158    magn:    0.0016    constr:    0.0000
     atom:    4    charge:    1.7153    magn:    0.0017    constr:    0.0000
     atom:    5    charge:    1.7170    magn:    0.0000    constr:    0.0000
     atom:    6    charge:    1.7146    magn:   -0.0001    constr:    0.0000
     atom:    7    charge:    1.7170    magn:    0.0000    constr:    0.0000
     atom:    8    charge:    1.7153    magn:    0.0017    constr:    0.0000
     atom:    9    charge:    1.7158    magn:    0.0016    constr:    0.0000
     atom:   10    charge:    1.7171    magn:   -0.0009    constr:    0.0000
     atom:   11    charge:    1.7160    magn:    0.0005    constr:    0.0000
     atom:   12    charge:    1.7170    magn:   -0.0009    constr:    0.0000
     atom:   13    charge:    1.7160    magn:    0.0005    constr:    0.0000
     atom:   14    charge:    1.7169    magn:   -0.0010    constr:    0.0000
     atom:   15    charge:    1.7130    magn:    0.0072    constr:    0.0000
     atom:   16    charge:    1.7107    magn:    0.0132    constr:    0.0000
     atom:   17    charge:    1.7214    magn:    0.0030    constr:    0.0000
     atom:   18    charge:    1.7107    magn:    0.0132    constr:    0.0000
     atom:   19    charge:    1.7130    magn:    0.0073    constr:    0.0000
     atom:   20    charge:    1.7169    magn:   -0.0010    constr:    0.0000
     atom:   21    charge:    1.7160    magn:    0.0005    constr:    0.0000
     atom:   22    charge:    1.7171    magn:   -0.0009    constr:    0.0000
     atom:   23    charge:    1.7158    magn:    0.0016    constr:    0.0000
     atom:   24    charge:    1.7153    magn:    0.0017    constr:    0.0000
     atom:   25    charge:    1.7130    magn:    0.0072    constr:    0.0000
     atom:   26    charge:    1.7109    magn:    0.0132    constr:    0.0000
     atom:   27    charge:    1.8172    magn:    0.0791    constr:    0.0000
     atom:   28    charge:    7.0284    magn:    0.1548    constr:    0.0000
     atom:   29    charge:    1.8175    magn:    0.0798    constr:    0.0000
     atom:   30    charge:    1.7108    magn:    0.0131    constr:    0.0000
     atom:   31    charge:    1.7130    magn:    0.0072    constr:    0.0000
     atom:   32    charge:    1.7153    magn:    0.0017    constr:    0.0000
     atom:   33    charge:    1.7170    magn:    0.0000    constr:    0.0000
     atom:   34    charge:    1.7153    magn:   -0.0000    constr:    0.0000
     atom:   35    charge:    1.7170    magn:    0.0000    constr:    0.0000
     atom:   36    charge:    1.7146    magn:   -0.0001    constr:    0.0000
     atom:   37    charge:    1.7214    magn:    0.0030    constr:    0.0000
     atom:   38    charge:    1.7108    magn:    0.0132    constr:    0.0000
     atom:   39    charge:    1.8170    magn:    0.0799    constr:    0.0000
     atom:   40    charge:    1.7107    magn:    0.0130    constr:    0.0000
     atom:   41    charge:    1.7214    magn:    0.0031    constr:    0.0000
     atom:   42    charge:    1.7146    magn:   -0.0001    constr:    0.0000
     atom:   43    charge:    1.7170    magn:    0.0000    constr:    0.0000
     atom:   44    charge:    1.7153    magn:   -0.0000    constr:    0.0000
     atom:   45    charge:    1.7211    magn:   -0.0007    constr:    0.0000
     atom:   46    charge:    1.7153    magn:   -0.0000    constr:    0.0000
     atom:   47    charge:    1.7170    magn:    0.0000    constr:    0.0000
     atom:   48    charge:    1.7153    magn:    0.0017    constr:    0.0000
     atom:   49    charge:    1.7130    magn:    0.0073    constr:    0.0000
     atom:   50    charge:    1.7169    magn:   -0.0010    constr:    0.0000
     atom:   51    charge:    1.7129    magn:    0.0072    constr:    0.0000
     atom:   52    charge:    1.7153    magn:    0.0017    constr:    0.0000

     total cpu time spent up to now is     2546.6 secs

     End of self-consistent calculation

 ------ SPIN UP ------------


          k = 0.0000 0.0000 0.0000 ( 87777 PWs)   bands (ev):

   -19.8394 -18.9970 -18.9966 -18.9026 -18.9024 -18.8408 -18.7632 -17.1676
   -17.1675 -17.1305 -17.0862 -17.0861 -16.8084 -16.3270 -16.3268 -16.1815
   -16.1814 -16.1592 -15.7673 -14.4232 -14.4231 -14.1279 -14.0331 -14.0330
   -13.5755 -13.1653 -13.1653 -13.0787 -12.9359 -12.9359 -12.6307 -12.3152
   -12.3148 -11.7129 -11.6071 -11.6070 -11.1855 -10.9364 -10.9362  -9.5227
    -9.3626  -9.3626  -9.2420  -9.2321  -9.2321  -9.2228  -9.1060  -9.1052
    -9.0593  -9.0592  -8.9589  -8.7157  -8.7156  -7.9552  -7.8949  -7.8372
    -7.6624  -7.6621  -7.5330  -7.5329  -6.9362  -6.8410  -6.8405  -6.8161
    -6.7890  -6.7139  -6.7131  -6.7078  -6.6169  -6.6167  -6.5730  -6.5665
    -6.5663  -6.5506  -6.5205  -6.3966  -6.3963  -5.6119  -5.6119  -5.0271
    -5.0106  -4.9554  -4.8843  -4.8840  -4.7610  -4.7240  -4.7237  -4.5397
    -4.5396  -4.4683  -3.8502  -3.8501  -3.8169  -3.8168  -3.7815  -3.6378
    -3.6377  -3.4049  -1.8813  -1.8256  -1.8254  -1.7311  -1.7310  -1.2198
    -0.8346  -0.8345   0.9131   0.9492   0.9494   1.0966   1.0968   1.4996
     2.4733   2.7954   2.7957   2.8398   2.9336   2.9339   3.4059   3.4324
     3.6060   3.7257   3.7294   3.7500   3.8985   3.9843

     occupation numbers 
     1.0000   1.0000   1.0000   1.0000   1.0000   1.0000   1.0000   1.0000
     1.0000   1.0000   1.0000   1.0000   1.0000   1.0000   1.0000   1.0000
     1.0000   1.0000   1.0000   1.0000   1.0000   1.0000   1.0000   1.0000
     1.0000   1.0000   1.0000   1.0000   1.0000   1.0000   1.0000   1.0000
     1.0000   1.0000   1.0000   1.0000   1.0000   1.0000   1.0000   1.0000
     1.0000   1.0000   1.0000   1.0000   1.0000   1.0000   1.0000   1.0000
     1.0000   1.0000   1.0000   1.0000   1.0000   1.0000   1.0000   1.0000
     1.0000   1.0000   1.0000   1.0000   1.0000   1.0000   1.0000   1.0000
     1.0000   1.0000   1.0000   1.0000   1.0000   1.0000   1.0000   1.0000
     1.0000   1.0000   1.0000   1.0000   1.0000   1.0000   1.0000   1.0000
     1.0000   1.0000   1.0000   1.0000   1.0000   1.0000   1.0000   1.0000
     1.0000   1.0000   1.0000   1.0000   1.0000   1.0000   1.0000   1.0000
     1.0000   1.0000   1.0000   1.0000   1.0000   1.0000   1.0000   1.0000
     0.5031   0.4969   0.0000   0.0000   0.0000   0.0000   0.0000   0.0000
     0.0000   0.0000   0.0000   0.0000   0.0000   0.0000   0.0000   0.0000
     0.0000   0.0000   0.0000   0.0000   0.0000   0.0000

 ------ SPIN DOWN ----------


          k = 0.0000 0.0000 0.0000 ( 87777 PWs)   bands (ev):

   -19.8144 -18.9645 -18.9641 -18.8957 -18.8955 -18.8379 -18.6877 -17.1280
   -17.1280 -17.1145 -17.0645 -17.0642 -16.7749 -16.2897 -16.2894 -16.1599
   -16.1595 -16.1523 -15.6917 -14.3332 -14.3330 -14.1037 -14.0250 -14.0249
   -13.5330 -13.1398 -13.1398 -13.0656 -12.8994 -12.8990 -12.5659 -12.2039
   -12.2037 -11.6932 -11.5726 -11.5722 -11.0801 -10.8062 -10.8058  -9.4818
    -9.3432  -9.3430  -9.2343  -9.2233  -9.2233  -9.2105  -9.0028  -9.0028
    -8.9347  -8.9329  -8.8340  -8.6743  -8.6740  -7.9451  -7.8706  -7.8153
    -7.6134  -7.6133  -7.5154  -7.5153  -6.8863  -6.8398  -6.8394  -6.7887
    -6.7755  -6.7008  -6.7000  -6.6702  -6.5949  -6.5948  -6.5652  -6.5625
    -6.5624  -6.5505  -6.5143  -6.3556  -6.3554  -5.5844  -5.5842  -5.0081
    -4.9455  -4.8643  -4.8641  -4.7968  -4.7561  -4.7229  -4.7226  -4.5300
    -4.5299  -4.4522  -3.8461  -3.8460  -3.7915  -3.7912  -3.7823  -3.6194
    -3.6192  -3.3669  -1.8775  -1.8236  -1.8234  -1.7090  -1.7088  -1.1833
    -0.4346  -0.4304   0.9162   0.9525   0.9527   1.1198   1.1202   1.5118
     2.4745   2.7976   2.7978   2.8409   2.9609   2.9615   3.4150   3.4333
     3.6068   3.7250   3.7287   3.7489   3.9108   3.9884

     occupation numbers 
     1.0000   1.0000   1.0000   1.0000   1.0000   1.0000   1.0000   1.0000
     1.0000   1.0000   1.0000   1.0000   1.0000   1.0000   1.0000   1.0000
     1.0000   1.0000   1.0000   1.0000   1.0000   1.0000   1.0000   1.0000
     1.0000   1.0000   1.0000   1.0000   1.0000   1.0000   1.0000   1.0000
     1.0000   1.0000   1.0000   1.0000   1.0000   1.0000   1.0000   1.0000
     1.0000   1.0000   1.0000   1.0000   1.0000   1.0000   1.0000   1.0000
     1.0000   1.0000   1.0000   1.0000   1.0000   1.0000   1.0000   1.0000
     1.0000   1.0000   1.0000   1.0000   1.0000   1.0000   1.0000   1.0000
     1.0000   1.0000   1.0000   1.0000   1.0000   1.0000   1.0000   1.0000
     1.0000   1.0000   1.0000   1.0000   1.0000   1.0000   1.0000   1.0000
     1.0000   1.0000   1.0000   1.0000   1.0000   1.0000   1.0000   1.0000
     1.0000   1.0000   1.0000   1.0000   1.0000   1.0000   1.0000   1.0000
     1.0000   1.0000   1.0000   1.0000   1.0000   1.0000   1.0000   1.0000
     0.0000   0.0000   0.0000   0.0000   0.0000   0.0000   0.0000   0.0000
     0.0000   0.0000   0.0000   0.0000   0.0000   0.0000   0.0000   0.0000
     0.0000   0.0000   0.0000   0.0000   0.0000   0.0000

     the Fermi energy is    -0.8327 ev

!    total energy              =    -734.75797380 Ry
     Harris-Foulkes estimate   =    -734.75797415 Ry
     estimated scf accuracy    <       0.00000073 Ry

     The total energy is the sum of the following terms:

     one-electron contribution =   -2474.02429996 Ry
     hartree contribution      =    1292.75673206 Ry
     xc contribution           =    -275.91951508 Ry
     ewald contribution        =     722.42943735 Ry
     smearing contrib. (-TS)   =      -0.00032817 Ry

     total magnetization       =     1.00 Bohr mag/cell
     absolute magnetization    =     1.06 Bohr mag/cell

     convergence has been achieved in  25 iterations

     Writing output data file cobre-top-distance-5.0.save/

     init_run     :     67.84s CPU     69.95s WALL (       1 calls)
     electrons    :   2427.59s CPU   2475.68s WALL (       1 calls)

     Called by init_run:
     wfcinit      :     39.63s CPU     39.89s WALL (       1 calls)
     wfcinit:atom :      0.05s CPU      0.08s WALL (       2 calls)
     wfcinit:wfcr :     39.23s CPU     39.42s WALL (       2 calls)
     potinit      :     12.23s CPU     12.91s WALL (       1 calls)
     hinit0       :      7.92s CPU      8.02s WALL (       1 calls)

     Called by electrons:
     c_bands      :   1458.29s CPU   1465.78s WALL (      25 calls)
     sum_band     :    555.64s CPU    572.95s WALL (      25 calls)
     v_of_rho     :    203.24s CPU    213.75s WALL (      26 calls)
     v_h          :      2.48s CPU      2.51s WALL (      26 calls)
     v_xc         :    200.75s CPU    211.24s WALL (      26 calls)
     newd         :    204.70s CPU    218.71s WALL (      26 calls)
     mix_rho      :     12.70s CPU     12.87s WALL (      25 calls)

     Called by c_bands:
     init_us_2    :      4.66s CPU      4.70s WALL (     102 calls)
     cegterg      :   1446.84s CPU   1454.29s WALL (      50 calls)

     Called by sum_band:
     sum_band:bec :      0.04s CPU      0.04s WALL (      50 calls)
     addusdens    :    375.29s CPU    391.45s WALL (      25 calls)

     Called by *egterg:
     h_psi        :    755.45s CPU    760.48s WALL (     186 calls)
     s_psi        :    238.39s CPU    238.48s WALL (     186 calls)
     g_psi        :      0.84s CPU      0.84s WALL (     134 calls)
     cdiaghg      :     11.33s CPU     11.36s WALL (     184 calls)
     cegterg:over :    188.98s CPU    189.05s WALL (     134 calls)
     cegterg:upda :    111.70s CPU    112.45s WALL (     134 calls)
     cegterg:last :     86.39s CPU     86.41s WALL (      50 calls)

     Called by h_psi:
     h_psi:pot    :    754.49s CPU    758.49s WALL (     186 calls)
     h_psi:calbec :    236.25s CPU    236.33s WALL (     186 calls)
     vloc_psi     :    280.37s CPU    284.25s WALL (     186 calls)
     add_vuspsi   :    237.86s CPU    237.91s WALL (     186 calls)

     General routines
     calbec       :    340.62s CPU    340.71s WALL (     236 calls)
     fft          :    122.01s CPU    126.30s WALL (    1944 calls)
     ffts         :      2.05s CPU      2.14s WALL (     102 calls)
     fftw         :    300.38s CPU    304.66s WALL (   34600 calls)
     interpolate  :      5.53s CPU      5.67s WALL (      52 calls)

     Parallel routines
     fft_scatt_xy :     83.13s CPU     83.95s WALL (   36646 calls)
     fft_scatt_yz :    130.03s CPU    136.36s WALL (   36646 calls)

     PWSCF        :  41m36.69s CPU  42m27.25s WALL


   This run was terminated on:  20:13:50   6Sep2022            

=------------------------------------------------------------------------------=
   JOB DONE.
=------------------------------------------------------------------------------=
