
     Program PWSCF v.6.4.1 starts on  7Sep2022 at  2:31:47 

     This program is part of the open-source Quantum ESPRESSO suite
     for quantum simulation of materials; please cite
         "P. Giannozzi et al., J. Phys.:Condens. Matter 21 395502 (2009);
         "P. Giannozzi et al., J. Phys.:Condens. Matter 29 465901 (2017);
          URL http://www.quantum-espresso.org", 
     in publications or presentations arising from this work. More details at
     http://www.quantum-espresso.org/quote

     Parallel version (MPI), running on     6 processors

     MPI processes distributed on     1 nodes
     R & G space division:  proc/nbgrp/npool/nimage =       6
     Reading input from distance-1.8.in

     Current dimensions of program PWSCF are:
     Max number of different atomic species (ntypx) = 10
     Max number of k-points (npk) =  40000
     Max angular momentum in pseudopotentials (lmaxx) =  3

     IMPORTANT: XC functional enforced from input :
     Exchange-correlation      = RVV10 ( 1  4 13  4 3 0)
     Any further DFT definition will be discarded
     Please, verify this is what you really want

               file H.pbe-rrkjus.UPF: wavefunction(s)  1S renormalized
               file Cu.pbe-dn-rrkjus_psl.1.0.0.UPF: wavefunction(s)  3D renormalized

     Subspace diagonalization in iterative solution of the eigenvalue problem:
     a serial algorithm will be used


     Parallelization info
     --------------------
     sticks:   dense  smooth     PW     G-vecs:    dense   smooth      PW
     Min        3051    1746    432               270999   117096   14629
     Max        3053    1747    437               271001   117099   14630
     Sum       18313   10477   2611              1626001   702581   87777



     bravais-lattice index     =            4
     lattice parameter (alat)  =      23.2937  a.u.
     unit-cell volume          =    8879.8548 (a.u.)^3
     number of atoms/cell      =           52
     number of atomic types    =            3
     number of electrons       =       209.00
     number of Kohn-Sham states=          126
     kinetic-energy cutoff     =      70.0000  Ry
     charge density cutoff     =     490.0000  Ry
     convergence threshold     =      1.0E-06
     mixing beta               =       0.7000
     number of iterations used =            8  plain     mixing
     Exchange-correlation      = RVV10 ( 1  4 13  4 3 0)

     celldm(1)=  23.293684  celldm(2)=   0.000000  celldm(3)=   0.811261
     celldm(4)=   0.000000  celldm(5)=   0.000000  celldm(6)=   0.000000

     crystal axes: (cart. coord. in units of alat)
               a(1) = (   1.000000   0.000000   0.000000 )  
               a(2) = (  -0.500000   0.866025   0.000000 )  
               a(3) = (   0.000000   0.000000   0.811261 )  

     reciprocal axes: (cart. coord. in units 2 pi/alat)
               b(1) = (  1.000000  0.577350 -0.000000 )  
               b(2) = (  0.000000  1.154701  0.000000 )  
               b(3) = (  0.000000 -0.000000  1.232649 )  


     PseudoPot. # 1 for H  read from file:
     /home/cristian/Escritorio/Proyecto_Grafeno/pseudopotenciales/H.pbe-rrkjus.UPF
     MD5 check sum: 7cc9d459525c9a0585f487a71c3c9563
     Pseudo is Ultrasoft, Zval =  1.0
     Generated by new atomic code, or converted to UPF format
     Using radial grid of 1061 points,  2 beta functions with: 
                l(1) =   0
                l(2) =   0
     Q(r) pseudized with 0 coefficients 


     PseudoPot. # 2 for C  read from file:
     /home/cristian/Escritorio/Proyecto_Grafeno/pseudopotenciales/C.pbe-n-rrkjus_psl.1.0.0.UPF
     MD5 check sum: 1fdd950c42eb37d8afe3dd2f8d12311e
     Pseudo is Ultrasoft + core correction, Zval =  4.0
     Generated using "atomic" code by A. Dal Corso v.6.3MaX
     Using radial grid of 1073 points,  4 beta functions with: 
                l(1) =   0
                l(2) =   0
                l(3) =   1
                l(4) =   1
     Q(r) pseudized with 0 coefficients 


     PseudoPot. # 3 for Cu read from file:
     /home/cristian/Escritorio/Proyecto_Grafeno/pseudopotenciales/Cu.pbe-dn-rrkjus_psl.1.0.0.UPF
     MD5 check sum: ba3d6c84e19846e79d48cdc68ff7152b
     Pseudo is Ultrasoft + core correction, Zval = 11.0
     Generated using "atomic" code by A. Dal Corso v.6.3
     Using radial grid of 1199 points,  6 beta functions with: 
                l(1) =   0
                l(2) =   0
                l(3) =   1
                l(4) =   1
                l(5) =   2
                l(6) =   2
     Q(r) pseudized with 0 coefficients 


     vdW kernel table read from file rVV10_kernel_table
     MD5 check sum: b8e2538accc0c0b3206b45ba4daaba6c

     atomic species   valence    mass     pseudopotential
        H              1.00     1.00794     H ( 1.00)
        C              4.00    12.01070     C ( 1.00)
        Cu            11.00    63.54600     Cu( 1.00)

     Starting magnetic structure 
     atomic species   magnetization
        H            0.500
        C            0.300
        Cu           0.800

     No symmetry found


                                    s                        frac. trans.

      isym =  1     identity                                     

 cryst.   s( 1) = (     1          0          0      )
                  (     0          1          0      )
                  (     0          0          1      )

 cart.    s( 1) = (  1.0000000  0.0000000  0.0000000 )
                  (  0.0000000  1.0000000  0.0000000 )
                  (  0.0000000  0.0000000  1.0000000 )


     point group C_1 (1)    
     there are  1 classes
     the character table:

       E    
A      1.00

     the symmetry operations in each class and the name of the first element:

     E        1
          identity                                               

   Cartesian axes

     site n.     atom                  positions (alat units)
         1           H   tau(   1) = (   0.1694937   0.4618802   0.1460270  )
         2           H   tau(   2) = (   0.2305063   0.4618802   0.1460270  )
         3           C   tau(   3) = (   0.0000000   0.0000000   0.0000000  )
         4           C   tau(   4) = (   0.0000000   0.1154701   0.0000000  )
         5           C   tau(   5) = (  -0.1000000   0.1732051   0.0000000  )
         6           C   tau(   6) = (  -0.1000000   0.2886751   0.0000000  )
         7           C   tau(   7) = (  -0.2000000   0.3464102   0.0000000  )
         8           C   tau(   8) = (  -0.2000000   0.4618802   0.0000000  )
         9           C   tau(   9) = (  -0.3000000   0.5196152   0.0000000  )
        10           C   tau(  10) = (  -0.3000000   0.6350853   0.0000000  )
        11           C   tau(  11) = (  -0.4000000   0.6928203   0.0000000  )
        12           C   tau(  12) = (  -0.4000000   0.8082904   0.0000000  )
        13           C   tau(  13) = (   0.2000000   0.0000000   0.0000000  )
        14           C   tau(  14) = (   0.2000000   0.1154701   0.0000000  )
        15           C   tau(  15) = (   0.1000000   0.1732051   0.0000000  )
        16           C   tau(  16) = (   0.1000000   0.2886751   0.0000000  )
        17           C   tau(  17) = (   0.0000000   0.3464102   0.0000000  )
        18           C   tau(  18) = (   0.0000000   0.4618802   0.0000000  )
        19           C   tau(  19) = (  -0.1000000   0.5196152   0.0000000  )
        20           C   tau(  20) = (  -0.1000000   0.6350853   0.0000000  )
        21           C   tau(  21) = (  -0.2000000   0.6928203   0.0000000  )
        22           C   tau(  22) = (  -0.2000000   0.8082904   0.0000000  )
        23           C   tau(  23) = (   0.4000000   0.0000000   0.0000000  )
        24           C   tau(  24) = (   0.4000000   0.1154701   0.0000000  )
        25           C   tau(  25) = (   0.3000000   0.1732051   0.0000000  )
        26           C   tau(  26) = (   0.3000000   0.2886751   0.0000000  )
        27           C   tau(  27) = (   0.2000000   0.3464102   0.0000000  )
        28           Cu  tau(  28) = (   0.2000000   0.4618802   0.0000000  )
        29           C   tau(  29) = (   0.1000000   0.5196152   0.0000000  )
        30           C   tau(  30) = (   0.1000000   0.6350853   0.0000000  )
        31           C   tau(  31) = (   0.0000000   0.6928203   0.0000000  )
        32           C   tau(  32) = (   0.0000000   0.8082904   0.0000000  )
        33           C   tau(  33) = (   0.6000000   0.0000000   0.0000000  )
        34           C   tau(  34) = (   0.6000000   0.1154701   0.0000000  )
        35           C   tau(  35) = (   0.5000000   0.1732051   0.0000000  )
        36           C   tau(  36) = (   0.5000000   0.2886751   0.0000000  )
        37           C   tau(  37) = (   0.4000000   0.3464102   0.0000000  )
        38           C   tau(  38) = (   0.4000000   0.4618802   0.0000000  )
        39           C   tau(  39) = (   0.3000000   0.5196152   0.0000000  )
        40           C   tau(  40) = (   0.3000000   0.6350853   0.0000000  )
        41           C   tau(  41) = (   0.2000000   0.6928203   0.0000000  )
        42           C   tau(  42) = (   0.2000000   0.8082904   0.0000000  )
        43           C   tau(  43) = (   0.8000000   0.0000000   0.0000000  )
        44           C   tau(  44) = (   0.8000000   0.1154701   0.0000000  )
        45           C   tau(  45) = (   0.7000000   0.1732051   0.0000000  )
        46           C   tau(  46) = (   0.7000000   0.2886751   0.0000000  )
        47           C   tau(  47) = (   0.6000000   0.3464102   0.0000000  )
        48           C   tau(  48) = (   0.6000000   0.4618802   0.0000000  )
        49           C   tau(  49) = (   0.5000000   0.5196152   0.0000000  )
        50           C   tau(  50) = (   0.5000000   0.6350853   0.0000000  )
        51           C   tau(  51) = (   0.4000000   0.6928203   0.0000000  )
        52           C   tau(  52) = (   0.4000000   0.8082904   0.0000000  )

   Crystallographic axes

     site n.     atom                  positions (cryst. coord.)
         1           H   tau(   1) = (  0.4361603  0.5333333  0.1800000  )
         2           H   tau(   2) = (  0.4971730  0.5333333  0.1800000  )
         3           C   tau(   3) = (  0.0000000  0.0000000  0.0000000  )
         4           C   tau(   4) = (  0.0666667  0.1333333  0.0000000  )
         5           C   tau(   5) = (  0.0000000  0.2000000  0.0000000  )
         6           C   tau(   6) = (  0.0666667  0.3333333  0.0000000  )
         7           C   tau(   7) = (  0.0000000  0.4000000  0.0000000  )
         8           C   tau(   8) = (  0.0666667  0.5333333  0.0000000  )
         9           C   tau(   9) = (  0.0000000  0.6000000  0.0000000  )
        10           C   tau(  10) = (  0.0666667  0.7333333  0.0000000  )
        11           C   tau(  11) = (  0.0000000  0.8000000  0.0000000  )
        12           C   tau(  12) = (  0.0666667  0.9333333  0.0000000  )
        13           C   tau(  13) = (  0.2000000  0.0000000  0.0000000  )
        14           C   tau(  14) = (  0.2666667  0.1333333  0.0000000  )
        15           C   tau(  15) = (  0.2000000  0.2000000  0.0000000  )
        16           C   tau(  16) = (  0.2666667  0.3333333  0.0000000  )
        17           C   tau(  17) = (  0.2000000  0.4000000  0.0000000  )
        18           C   tau(  18) = (  0.2666667  0.5333333  0.0000000  )
        19           C   tau(  19) = (  0.2000000  0.6000000  0.0000000  )
        20           C   tau(  20) = (  0.2666667  0.7333333  0.0000000  )
        21           C   tau(  21) = (  0.2000000  0.8000000  0.0000000  )
        22           C   tau(  22) = (  0.2666667  0.9333333  0.0000000  )
        23           C   tau(  23) = (  0.4000000  0.0000000  0.0000000  )
        24           C   tau(  24) = (  0.4666667  0.1333333  0.0000000  )
        25           C   tau(  25) = (  0.4000000  0.2000000  0.0000000  )
        26           C   tau(  26) = (  0.4666667  0.3333333  0.0000000  )
        27           C   tau(  27) = (  0.4000000  0.4000000  0.0000000  )
        28           Cu  tau(  28) = (  0.4666667  0.5333333  0.0000000  )
        29           C   tau(  29) = (  0.4000000  0.6000000  0.0000000  )
        30           C   tau(  30) = (  0.4666667  0.7333333  0.0000000  )
        31           C   tau(  31) = (  0.4000000  0.8000000  0.0000000  )
        32           C   tau(  32) = (  0.4666667  0.9333333  0.0000000  )
        33           C   tau(  33) = (  0.6000000  0.0000000  0.0000000  )
        34           C   tau(  34) = (  0.6666667  0.1333333  0.0000000  )
        35           C   tau(  35) = (  0.6000000  0.2000000  0.0000000  )
        36           C   tau(  36) = (  0.6666667  0.3333333  0.0000000  )
        37           C   tau(  37) = (  0.6000000  0.4000000  0.0000000  )
        38           C   tau(  38) = (  0.6666667  0.5333333  0.0000000  )
        39           C   tau(  39) = (  0.6000000  0.6000000  0.0000000  )
        40           C   tau(  40) = (  0.6666667  0.7333333  0.0000000  )
        41           C   tau(  41) = (  0.6000000  0.8000000  0.0000000  )
        42           C   tau(  42) = (  0.6666667  0.9333333  0.0000000  )
        43           C   tau(  43) = (  0.8000000  0.0000000  0.0000000  )
        44           C   tau(  44) = (  0.8666667  0.1333333  0.0000000  )
        45           C   tau(  45) = (  0.8000000  0.2000000  0.0000000  )
        46           C   tau(  46) = (  0.8666667  0.3333333  0.0000000  )
        47           C   tau(  47) = (  0.8000000  0.4000000  0.0000000  )
        48           C   tau(  48) = (  0.8666667  0.5333333  0.0000000  )
        49           C   tau(  49) = (  0.8000000  0.6000000  0.0000000  )
        50           C   tau(  50) = (  0.8666667  0.7333333  0.0000000  )
        51           C   tau(  51) = (  0.8000000  0.8000000  0.0000000  )
        52           C   tau(  52) = (  0.8666667  0.9333333  0.0000000  )

     number of k points=     1  Marzari-Vanderbilt smearing, width (Ry)=  0.0010
                       cart. coord. in units 2pi/alat
        k(    1) = (   0.0000000   0.0000000   0.0000000), wk =   1.0000000

                       cryst. coord.
        k(    1) = (   0.0000000   0.0000000   0.0000000), wk =   1.0000000

     Dense  grid:  1626001 G-vectors     FFT dimensions: ( 180, 180, 135)

     Smooth grid:   702581 G-vectors     FFT dimensions: ( 125, 125, 108)

     Dynamical RAM for                 wfc:      28.14 MB

     Dynamical RAM for     wfc (w. buffer):      84.42 MB

     Dynamical RAM for           str. fact:      12.41 MB

     Dynamical RAM for           local pot:       0.00 MB

     Dynamical RAM for          nlocal pot:      92.46 MB

     Dynamical RAM for                qrad:      19.73 MB

     Dynamical RAM for          rho,v,vnew:      58.92 MB

     Dynamical RAM for               rhoin:      19.64 MB

     Dynamical RAM for            rho*nmix:     132.32 MB

     Dynamical RAM for           G-vectors:      16.40 MB

     Dynamical RAM for          h,s,v(r/c):      11.63 MB

     Dynamical RAM for          <psi|beta>:       0.80 MB

     Dynamical RAM for                 psi:     112.56 MB

     Dynamical RAM for                hpsi:     112.56 MB

     Dynamical RAM for                spsi:     112.56 MB

     Dynamical RAM for      wfcinit/wfcrot:      93.45 MB

     Dynamical RAM for           addusdens:     975.89 MB

     Estimated static dynamical RAM per process >     486.96 MB

     Estimated max dynamical RAM per process >       1.43 GB

     Estimated total dynamical RAM >       8.57 GB
     Generating pointlists ...
     new r_m :   0.0252 (alat units)  0.5862 (a.u.) for type    1
     new r_m :   0.0476 (alat units)  1.1095 (a.u.) for type    2
     new r_m :   0.0476 (alat units)  1.1095 (a.u.) for type    3

     Check: negative core charge=   -0.000002

     Initial potential from superposition of free atoms

     starting charge  208.80532, renormalised to  209.00000

     negative rho (up, down):  7.857E-05 1.468E-02


---------------------------------------------------------------------------------
Carrying out rVV10 run using the following parameters:
Nqs =      20    Nr_points =    1024   r_max =   100.000
b_value =  6.30000    beta =  0.00901
     q_mesh =  0.00010000  0.00030000  0.00058939  0.00100810
               0.00161396  0.00249058  0.00375900  0.00559430
               0.00824984  0.01209221  0.01765183  0.02569619
               0.03733578  0.05417739  0.07854596  0.11380545
               0.16482331  0.23864234  0.34545298  0.50000000

Gradients computed in Reciprocal space

---------------------------------------------------------------------------------


     Starting wfcs are  207 randomized atomic wfcs

     total cpu time spent up to now is       78.8 secs

     Self-consistent Calculation

     iteration #  1     ecut=    70.00 Ry     beta= 0.70
     Davidson diagonalization with overlap
     ethr =  1.00E-02,  avg # of iterations =  5.5

     negative rho (up, down):  1.974E-04 1.419E-02

     total cpu time spent up to now is      205.2 secs

     total energy              =    -732.04573738 Ry
     Harris-Foulkes estimate   =    -734.70539475 Ry
     estimated scf accuracy    <       9.97275269 Ry

     total magnetization       =     3.00 Bohr mag/cell
     absolute magnetization    =     4.10 Bohr mag/cell

     iteration #  2     ecut=    70.00 Ry     beta= 0.70
     Davidson diagonalization with overlap
     ethr =  4.77E-03,  avg # of iterations =  5.0

     negative rho (up, down):  2.567E-04 1.163E-02

     total cpu time spent up to now is      319.4 secs

     total energy              =    -731.26631794 Ry
     Harris-Foulkes estimate   =    -735.90796944 Ry
     estimated scf accuracy    <       9.40103383 Ry

     total magnetization       =     2.44 Bohr mag/cell
     absolute magnetization    =     2.64 Bohr mag/cell

     iteration #  3     ecut=    70.00 Ry     beta= 0.70
     Davidson diagonalization with overlap
     ethr =  4.50E-03,  avg # of iterations =  4.0

     negative rho (up, down):  2.970E-04 9.820E-03

     total cpu time spent up to now is      432.8 secs

     total energy              =    -732.37267388 Ry
     Harris-Foulkes estimate   =    -736.37671685 Ry
     estimated scf accuracy    <      13.67034695 Ry

     total magnetization       =     3.00 Bohr mag/cell
     absolute magnetization    =     3.16 Bohr mag/cell

     iteration #  4     ecut=    70.00 Ry     beta= 0.70
     Davidson diagonalization with overlap
     ethr =  4.50E-03,  avg # of iterations =  3.5

     negative rho (up, down):  3.524E-04 8.547E-03

     total cpu time spent up to now is      528.9 secs

     total energy              =    -731.32543843 Ry
     Harris-Foulkes estimate   =    -735.80924034 Ry
     estimated scf accuracy    <      24.95169210 Ry

     total magnetization       =     3.00 Bohr mag/cell
     absolute magnetization    =     3.38 Bohr mag/cell

     iteration #  5     ecut=    70.00 Ry     beta= 0.70
     Davidson diagonalization with overlap
     ethr =  4.50E-03,  avg # of iterations =  3.0

     negative rho (up, down):  4.106E-04 1.186E-02

     total cpu time spent up to now is      626.0 secs

     total energy              =    -734.54976971 Ry
     Harris-Foulkes estimate   =    -734.80617352 Ry
     estimated scf accuracy    <       1.45659272 Ry

     total magnetization       =     2.05 Bohr mag/cell
     absolute magnetization    =     2.25 Bohr mag/cell

     iteration #  6     ecut=    70.00 Ry     beta= 0.70
     Davidson diagonalization with overlap
     ethr =  6.97E-04,  avg # of iterations =  7.5

     negative rho (up, down):  5.108E-04 1.336E-02

     total cpu time spent up to now is      719.1 secs

     total energy              =    -734.61779251 Ry
     Harris-Foulkes estimate   =    -734.67368527 Ry
     estimated scf accuracy    <       0.36789273 Ry

     total magnetization       =     2.81 Bohr mag/cell
     absolute magnetization    =     2.99 Bohr mag/cell

     iteration #  7     ecut=    70.00 Ry     beta= 0.70
     Davidson diagonalization with overlap
     ethr =  1.76E-04,  avg # of iterations =  6.0

     negative rho (up, down):  5.418E-04 1.116E-02

     total cpu time spent up to now is      811.6 secs

     total energy              =    -734.62672216 Ry
     Harris-Foulkes estimate   =    -734.64354674 Ry
     estimated scf accuracy    <       0.12446338 Ry

     total magnetization       =     1.00 Bohr mag/cell
     absolute magnetization    =     1.36 Bohr mag/cell

     iteration #  8     ecut=    70.00 Ry     beta= 0.70
     Davidson diagonalization with overlap
     ethr =  5.96E-05,  avg # of iterations =  8.5

     negative rho (up, down):  5.766E-04 1.061E-02

     total cpu time spent up to now is      905.5 secs

     total energy              =    -734.62131869 Ry
     Harris-Foulkes estimate   =    -734.63367080 Ry
     estimated scf accuracy    <       0.14485984 Ry

     total magnetization       =     3.00 Bohr mag/cell
     absolute magnetization    =     3.16 Bohr mag/cell

     iteration #  9     ecut=    70.00 Ry     beta= 0.70
     Davidson diagonalization with overlap
     ethr =  5.96E-05,  avg # of iterations =  1.0

     negative rho (up, down):  6.231E-04 7.131E-03

     total cpu time spent up to now is      995.0 secs

     total energy              =    -734.62389688 Ry
     Harris-Foulkes estimate   =    -734.62868866 Ry
     estimated scf accuracy    <       0.04364340 Ry

     total magnetization       =     1.00 Bohr mag/cell
     absolute magnetization    =     1.38 Bohr mag/cell

     iteration # 10     ecut=    70.00 Ry     beta= 0.70
     Davidson diagonalization with overlap
     ethr =  2.09E-05,  avg # of iterations =  2.0

     negative rho (up, down):  6.470E-04 5.489E-03

     total cpu time spent up to now is     1085.1 secs

     total energy              =    -734.62452698 Ry
     Harris-Foulkes estimate   =    -734.62605574 Ry
     estimated scf accuracy    <       0.03906080 Ry

     total magnetization       =     0.93 Bohr mag/cell
     absolute magnetization    =     1.35 Bohr mag/cell

     iteration # 11     ecut=    70.00 Ry     beta= 0.70
     Davidson diagonalization with overlap
     ethr =  1.87E-05,  avg # of iterations =  6.5

     negative rho (up, down):  6.491E-04 4.599E-03

     total cpu time spent up to now is     1178.3 secs

     total energy              =    -734.62468172 Ry
     Harris-Foulkes estimate   =    -734.62540039 Ry
     estimated scf accuracy    <       0.03027658 Ry

     total magnetization       =     1.00 Bohr mag/cell
     absolute magnetization    =     1.41 Bohr mag/cell

     iteration # 12     ecut=    70.00 Ry     beta= 0.70
     Davidson diagonalization with overlap
     ethr =  1.45E-05,  avg # of iterations =  1.0

     negative rho (up, down):  6.434E-04 4.304E-03

     total cpu time spent up to now is     1267.9 secs

     total energy              =    -734.62477120 Ry
     Harris-Foulkes estimate   =    -734.62516520 Ry
     estimated scf accuracy    <       0.02415056 Ry

     total magnetization       =     1.00 Bohr mag/cell
     absolute magnetization    =     1.40 Bohr mag/cell

     iteration # 13     ecut=    70.00 Ry     beta= 0.70
     Davidson diagonalization with overlap
     ethr =  1.16E-05,  avg # of iterations =  1.0

     negative rho (up, down):  6.406E-04 4.008E-03

     total cpu time spent up to now is     1357.1 secs

     total energy              =    -734.62463937 Ry
     Harris-Foulkes estimate   =    -734.62525449 Ry
     estimated scf accuracy    <       0.02236223 Ry

     total magnetization       =     1.00 Bohr mag/cell
     absolute magnetization    =     1.38 Bohr mag/cell

     iteration # 14     ecut=    70.00 Ry     beta= 0.70
     Davidson diagonalization with overlap
     ethr =  1.07E-05,  avg # of iterations =  1.0

     negative rho (up, down):  6.484E-04 3.685E-03

     total cpu time spent up to now is     1446.4 secs

     total energy              =    -734.62479704 Ry
     Harris-Foulkes estimate   =    -734.62496673 Ry
     estimated scf accuracy    <       0.01549112 Ry

     total magnetization       =     1.00 Bohr mag/cell
     absolute magnetization    =     1.36 Bohr mag/cell

     iteration # 15     ecut=    70.00 Ry     beta= 0.70
     Davidson diagonalization with overlap
     ethr =  7.41E-06,  avg # of iterations =  1.0

     negative rho (up, down):  6.471E-04 3.037E-03

     total cpu time spent up to now is     1535.5 secs

     total energy              =    -734.62445963 Ry
     Harris-Foulkes estimate   =    -734.62484267 Ry
     estimated scf accuracy    <       0.01596664 Ry

     total magnetization       =     0.98 Bohr mag/cell
     absolute magnetization    =     1.35 Bohr mag/cell

     iteration # 16     ecut=    70.00 Ry     beta= 0.70
     Davidson diagonalization with overlap
     ethr =  7.41E-06,  avg # of iterations =  4.5

     negative rho (up, down):  6.444E-04 2.536E-03

     total cpu time spent up to now is     1626.7 secs

     total energy              =    -734.62407305 Ry
     Harris-Foulkes estimate   =    -734.62456011 Ry
     estimated scf accuracy    <       0.01006369 Ry

     total magnetization       =     0.96 Bohr mag/cell
     absolute magnetization    =     1.29 Bohr mag/cell

     iteration # 17     ecut=    70.00 Ry     beta= 0.70
     Davidson diagonalization with overlap
     ethr =  4.82E-06,  avg # of iterations =  1.0

     negative rho (up, down):  6.426E-04 2.300E-03

     total cpu time spent up to now is     1716.3 secs

     total energy              =    -734.62383018 Ry
     Harris-Foulkes estimate   =    -734.62443380 Ry
     estimated scf accuracy    <       0.00322806 Ry

     total magnetization       =     1.02 Bohr mag/cell
     absolute magnetization    =     1.29 Bohr mag/cell

     iteration # 18     ecut=    70.00 Ry     beta= 0.70
     Davidson diagonalization with overlap
     ethr =  1.54E-06,  avg # of iterations =  4.0

     negative rho (up, down):  6.430E-04 2.346E-03

     total cpu time spent up to now is     1817.0 secs

     total energy              =    -734.62447432 Ry
     Harris-Foulkes estimate   =    -734.62463440 Ry
     estimated scf accuracy    <       0.00173533 Ry

     total magnetization       =     1.17 Bohr mag/cell
     absolute magnetization    =     1.35 Bohr mag/cell

     iteration # 19     ecut=    70.00 Ry     beta= 0.70
     Davidson diagonalization with overlap
     ethr =  8.30E-07,  avg # of iterations =  1.0

     negative rho (up, down):  6.429E-04 2.353E-03

     total cpu time spent up to now is     1906.4 secs

     total energy              =    -734.62462123 Ry
     Harris-Foulkes estimate   =    -734.62458539 Ry
     estimated scf accuracy    <       0.00006380 Ry

     total magnetization       =     1.01 Bohr mag/cell
     absolute magnetization    =     1.27 Bohr mag/cell

     iteration # 20     ecut=    70.00 Ry     beta= 0.70
     Davidson diagonalization with overlap
     ethr =  3.05E-08,  avg # of iterations =  3.0

     negative rho (up, down):  6.428E-04 2.381E-03

     total cpu time spent up to now is     1998.0 secs

     total energy              =    -734.62460417 Ry
     Harris-Foulkes estimate   =    -734.62462898 Ry
     estimated scf accuracy    <       0.00005015 Ry

     total magnetization       =     1.00 Bohr mag/cell
     absolute magnetization    =     1.28 Bohr mag/cell

     iteration # 21     ecut=    70.00 Ry     beta= 0.70
     Davidson diagonalization with overlap
     ethr =  2.40E-08,  avg # of iterations =  1.0

     negative rho (up, down):  6.425E-04 2.379E-03

     total cpu time spent up to now is     2087.4 secs

     total energy              =    -734.62462662 Ry
     Harris-Foulkes estimate   =    -734.62460748 Ry
     estimated scf accuracy    <       0.00006665 Ry

     total magnetization       =     1.00 Bohr mag/cell
     absolute magnetization    =     1.27 Bohr mag/cell

     iteration # 22     ecut=    70.00 Ry     beta= 0.70
     Davidson diagonalization with overlap
     ethr =  2.40E-08,  avg # of iterations =  2.0

     negative rho (up, down):  6.424E-04 2.398E-03

     total cpu time spent up to now is     2177.4 secs

     total energy              =    -734.62455574 Ry
     Harris-Foulkes estimate   =    -734.62463237 Ry
     estimated scf accuracy    <       0.00009113 Ry

     total magnetization       =     1.00 Bohr mag/cell
     absolute magnetization    =     1.27 Bohr mag/cell

     iteration # 23     ecut=    70.00 Ry     beta= 0.70
     Davidson diagonalization with overlap
     ethr =  2.40E-08,  avg # of iterations =  2.0

     negative rho (up, down):  6.421E-04 2.417E-03

     total cpu time spent up to now is     2270.6 secs

     total energy              =    -734.62444241 Ry
     Harris-Foulkes estimate   =    -734.62457341 Ry
     estimated scf accuracy    <       0.00016067 Ry

     total magnetization       =     1.00 Bohr mag/cell
     absolute magnetization    =     1.26 Bohr mag/cell

     iteration # 24     ecut=    70.00 Ry     beta= 0.70
     Davidson diagonalization with overlap
     ethr =  2.40E-08,  avg # of iterations =  3.0

     negative rho (up, down):  6.419E-04 2.451E-03

     total cpu time spent up to now is     2368.1 secs

     total energy              =    -734.62428274 Ry
     Harris-Foulkes estimate   =    -734.62448177 Ry
     estimated scf accuracy    <       0.00009419 Ry

     total magnetization       =     1.05 Bohr mag/cell
     absolute magnetization    =     1.26 Bohr mag/cell

     iteration # 25     ecut=    70.00 Ry     beta= 0.70
     Davidson diagonalization with overlap
     ethr =  2.40E-08,  avg # of iterations =  3.0

     negative rho (up, down):  6.422E-04 2.427E-03

     total cpu time spent up to now is     2482.5 secs

     total energy              =    -734.62426371 Ry
     Harris-Foulkes estimate   =    -734.62438855 Ry
     estimated scf accuracy    <       0.00022840 Ry

     total magnetization       =     1.18 Bohr mag/cell
     absolute magnetization    =     1.32 Bohr mag/cell

     iteration # 26     ecut=    70.00 Ry     beta= 0.70
     Davidson diagonalization with overlap
     ethr =  2.40E-08,  avg # of iterations =  3.0

     negative rho (up, down):  6.425E-04 2.413E-03

     total cpu time spent up to now is     2594.8 secs

     total energy              =    -734.62424966 Ry
     Harris-Foulkes estimate   =    -734.62431364 Ry
     estimated scf accuracy    <       0.00002190 Ry

     total magnetization       =     1.16 Bohr mag/cell
     absolute magnetization    =     1.32 Bohr mag/cell

     iteration # 27     ecut=    70.00 Ry     beta= 0.70
     Davidson diagonalization with overlap
     ethr =  1.05E-08,  avg # of iterations =  3.5

     negative rho (up, down):  6.428E-04 2.342E-03

     total cpu time spent up to now is     2707.3 secs

     total energy              =    -734.62430153 Ry
     Harris-Foulkes estimate   =    -734.62428771 Ry
     estimated scf accuracy    <       0.00018788 Ry

     total magnetization       =     1.09 Bohr mag/cell
     absolute magnetization    =     1.27 Bohr mag/cell

     iteration # 28     ecut=    70.00 Ry     beta= 0.70
     Davidson diagonalization with overlap
     ethr =  1.05E-08,  avg # of iterations =  2.0

     negative rho (up, down):  6.429E-04 2.377E-03

     total cpu time spent up to now is     2798.7 secs

     total energy              =    -734.62428163 Ry
     Harris-Foulkes estimate   =    -734.62430657 Ry
     estimated scf accuracy    <       0.00046667 Ry

     total magnetization       =     1.05 Bohr mag/cell
     absolute magnetization    =     1.24 Bohr mag/cell

     iteration # 29     ecut=    70.00 Ry     beta= 0.70
     Davidson diagonalization with overlap
     ethr =  1.05E-08,  avg # of iterations =  2.0

     negative rho (up, down):  6.430E-04 2.330E-03

     total cpu time spent up to now is     2890.8 secs

     total energy              =    -734.62430746 Ry
     Harris-Foulkes estimate   =    -734.62428864 Ry
     estimated scf accuracy    <       0.00043795 Ry

     total magnetization       =     1.05 Bohr mag/cell
     absolute magnetization    =     1.25 Bohr mag/cell

     iteration # 30     ecut=    70.00 Ry     beta= 0.70
     Davidson diagonalization with overlap
     ethr =  1.05E-08,  avg # of iterations =  1.5

     negative rho (up, down):  6.430E-04 2.319E-03

     total cpu time spent up to now is     2980.3 secs

     total energy              =    -734.62432172 Ry
     Harris-Foulkes estimate   =    -734.62430958 Ry
     estimated scf accuracy    <       0.00065372 Ry

     total magnetization       =     1.03 Bohr mag/cell
     absolute magnetization    =     1.23 Bohr mag/cell

     iteration # 31     ecut=    70.00 Ry     beta= 0.70
     Davidson diagonalization with overlap
     ethr =  1.05E-08,  avg # of iterations =  2.0

     negative rho (up, down):  6.430E-04 2.306E-03

     total cpu time spent up to now is     3070.7 secs

     total energy              =    -734.62433324 Ry
     Harris-Foulkes estimate   =    -734.62432499 Ry
     estimated scf accuracy    <       0.00064515 Ry

     total magnetization       =     1.02 Bohr mag/cell
     absolute magnetization    =     1.22 Bohr mag/cell

     iteration # 32     ecut=    70.00 Ry     beta= 0.70
     Davidson diagonalization with overlap
     ethr =  1.05E-08,  avg # of iterations =  2.5

     negative rho (up, down):  6.429E-04 2.258E-03

     total cpu time spent up to now is     3163.4 secs

     total energy              =    -734.62431285 Ry
     Harris-Foulkes estimate   =    -734.62434075 Ry
     estimated scf accuracy    <       0.00065764 Ry

     total magnetization       =     1.02 Bohr mag/cell
     absolute magnetization    =     1.22 Bohr mag/cell

     iteration # 33     ecut=    70.00 Ry     beta= 0.70
     Davidson diagonalization with overlap
     ethr =  1.05E-08,  avg # of iterations =  4.0

     negative rho (up, down):  6.429E-04 2.277E-03

     total cpu time spent up to now is     3282.7 secs

     total energy              =    -734.62443015 Ry
     Harris-Foulkes estimate   =    -734.62441458 Ry
     estimated scf accuracy    <       0.00052126 Ry

     total magnetization       =     1.02 Bohr mag/cell
     absolute magnetization    =     1.21 Bohr mag/cell

     iteration # 34     ecut=    70.00 Ry     beta= 0.70
     Davidson diagonalization with overlap
     ethr =  1.05E-08,  avg # of iterations =  2.0

     negative rho (up, down):  6.429E-04 2.353E-03

     total cpu time spent up to now is     3373.2 secs

     total energy              =    -734.62434086 Ry
     Harris-Foulkes estimate   =    -734.62443585 Ry
     estimated scf accuracy    <       0.00047191 Ry

     total magnetization       =     1.01 Bohr mag/cell
     absolute magnetization    =     1.21 Bohr mag/cell

     iteration # 35     ecut=    70.00 Ry     beta= 0.70
     Davidson diagonalization with overlap
     ethr =  1.05E-08,  avg # of iterations =  3.0

     negative rho (up, down):  6.427E-04 2.288E-03

     total cpu time spent up to now is     3482.8 secs

     total energy              =    -734.62435061 Ry
     Harris-Foulkes estimate   =    -734.62437998 Ry
     estimated scf accuracy    <       0.00055595 Ry

     total magnetization       =     1.02 Bohr mag/cell
     absolute magnetization    =     1.21 Bohr mag/cell

     iteration # 36     ecut=    70.00 Ry     beta= 0.70
     Davidson diagonalization with overlap
     ethr =  1.05E-08,  avg # of iterations =  4.0

     negative rho (up, down):  6.429E-04 2.301E-03

     total cpu time spent up to now is     3610.5 secs

     total energy              =    -734.62446731 Ry
     Harris-Foulkes estimate   =    -734.62448508 Ry
     estimated scf accuracy    <       0.00019898 Ry

     total magnetization       =     1.03 Bohr mag/cell
     absolute magnetization    =     1.24 Bohr mag/cell

     iteration # 37     ecut=    70.00 Ry     beta= 0.70
     Davidson diagonalization with overlap
     ethr =  1.05E-08,  avg # of iterations =  3.0

     negative rho (up, down):  6.430E-04 2.390E-03

     total cpu time spent up to now is     3724.9 secs

     total energy              =    -734.62429452 Ry
     Harris-Foulkes estimate   =    -734.62448981 Ry
     estimated scf accuracy    <       0.00047113 Ry

     total magnetization       =     1.01 Bohr mag/cell
     absolute magnetization    =     1.22 Bohr mag/cell

     iteration # 38     ecut=    70.00 Ry     beta= 0.70
     Davidson diagonalization with overlap
     ethr =  1.05E-08,  avg # of iterations =  3.0

     negative rho (up, down):  6.424E-04 3.339E-03

     total cpu time spent up to now is     3844.6 secs

     total energy              =    -734.62167873 Ry
     Harris-Foulkes estimate   =    -734.62439039 Ry
     estimated scf accuracy    <       0.00054799 Ry

     total magnetization       =     1.02 Bohr mag/cell
     absolute magnetization    =     1.20 Bohr mag/cell

     iteration # 39     ecut=    70.00 Ry     beta= 0.70
     Davidson diagonalization with overlap
     ethr =  1.05E-08,  avg # of iterations =  5.5

     negative rho (up, down):  6.427E-04 3.237E-03

     total cpu time spent up to now is     4018.4 secs

     total energy              =    -734.62018297 Ry
     Harris-Foulkes estimate   =    -734.62655668 Ry
     estimated scf accuracy    <       0.01898474 Ry

     total magnetization       =     1.00 Bohr mag/cell
     absolute magnetization    =     1.60 Bohr mag/cell

     iteration # 40     ecut=    70.00 Ry     beta= 0.70
     Davidson diagonalization with overlap
     ethr =  1.05E-08,  avg # of iterations =  5.0

     negative rho (up, down):  6.435E-04 2.810E-03

     total cpu time spent up to now is     4186.4 secs

     total energy              =    -734.62402278 Ry
     Harris-Foulkes estimate   =    -734.62450591 Ry
     estimated scf accuracy    <       0.00052658 Ry

     total magnetization       =     1.00 Bohr mag/cell
     absolute magnetization    =     1.19 Bohr mag/cell

     iteration # 41     ecut=    70.00 Ry     beta= 0.70
     Davidson diagonalization with overlap
     ethr =  1.05E-08,  avg # of iterations =  4.0

     negative rho (up, down):  6.437E-04 2.479E-03

     total cpu time spent up to now is     4323.5 secs

     total energy              =    -734.62437879 Ry
     Harris-Foulkes estimate   =    -734.62443343 Ry
     estimated scf accuracy    <       0.00042381 Ry

     total magnetization       =     1.05 Bohr mag/cell
     absolute magnetization    =     1.23 Bohr mag/cell

     iteration # 42     ecut=    70.00 Ry     beta= 0.70
     Davidson diagonalization with overlap
     ethr =  1.05E-08,  avg # of iterations =  3.0

     negative rho (up, down):  6.432E-04 2.445E-03

     total cpu time spent up to now is     4437.8 secs

     total energy              =    -734.62368578 Ry
     Harris-Foulkes estimate   =    -734.62440624 Ry
     estimated scf accuracy    <       0.00026031 Ry

     total magnetization       =     1.15 Bohr mag/cell
     absolute magnetization    =     1.33 Bohr mag/cell

     iteration # 43     ecut=    70.00 Ry     beta= 0.70
     Davidson diagonalization with overlap
     ethr =  1.05E-08,  avg # of iterations =  4.5

     negative rho (up, down):  6.433E-04 2.260E-03

     total cpu time spent up to now is     4582.5 secs

     total energy              =    -734.62456498 Ry
     Harris-Foulkes estimate   =    -734.62459535 Ry
     estimated scf accuracy    <       0.00033565 Ry

     total magnetization       =     1.02 Bohr mag/cell
     absolute magnetization    =     1.22 Bohr mag/cell

     iteration # 44     ecut=    70.00 Ry     beta= 0.70
     Davidson diagonalization with overlap
     ethr =  1.05E-08,  avg # of iterations =  3.0

     negative rho (up, down):  6.433E-04 2.264E-03

     total cpu time spent up to now is     4684.7 secs

     total energy              =    -734.62459599 Ry
     Harris-Foulkes estimate   =    -734.62457797 Ry
     estimated scf accuracy    <       0.00029327 Ry

     total magnetization       =     1.02 Bohr mag/cell
     absolute magnetization    =     1.20 Bohr mag/cell

     iteration # 45     ecut=    70.00 Ry     beta= 0.70
     Davidson diagonalization with overlap
     ethr =  1.05E-08,  avg # of iterations =  2.5

     negative rho (up, down):  6.433E-04 2.286E-03

     total cpu time spent up to now is     4781.5 secs

     total energy              =    -734.62461419 Ry
     Harris-Foulkes estimate   =    -734.62460618 Ry
     estimated scf accuracy    <       0.00017602 Ry

     total magnetization       =     1.02 Bohr mag/cell
     absolute magnetization    =     1.22 Bohr mag/cell

     iteration # 46     ecut=    70.00 Ry     beta= 0.70
     Davidson diagonalization with overlap
     ethr =  1.05E-08,  avg # of iterations =  1.0

     negative rho (up, down):  6.432E-04 2.307E-03

     total cpu time spent up to now is     4870.8 secs

     total energy              =    -734.62462294 Ry
     Harris-Foulkes estimate   =    -734.62461480 Ry
     estimated scf accuracy    <       0.00015952 Ry

     total magnetization       =     1.02 Bohr mag/cell
     absolute magnetization    =     1.22 Bohr mag/cell

     iteration # 47     ecut=    70.00 Ry     beta= 0.70
     Davidson diagonalization with overlap
     ethr =  1.05E-08,  avg # of iterations =  2.0

     negative rho (up, down):  6.432E-04 2.323E-03

     total cpu time spent up to now is     4961.2 secs

     total energy              =    -734.62463110 Ry
     Harris-Foulkes estimate   =    -734.62462578 Ry
     estimated scf accuracy    <       0.00015146 Ry

     total magnetization       =     1.02 Bohr mag/cell
     absolute magnetization    =     1.23 Bohr mag/cell

     iteration # 48     ecut=    70.00 Ry     beta= 0.70
     Davidson diagonalization with overlap
     ethr =  1.05E-08,  avg # of iterations =  1.0

     negative rho (up, down):  6.433E-04 2.402E-03

     total cpu time spent up to now is     5050.3 secs

     total energy              =    -734.62468243 Ry
     Harris-Foulkes estimate   =    -734.62463287 Ry
     estimated scf accuracy    <       0.00013354 Ry

     total magnetization       =     1.02 Bohr mag/cell
     absolute magnetization    =     1.23 Bohr mag/cell

     iteration # 49     ecut=    70.00 Ry     beta= 0.70
     Davidson diagonalization with overlap
     ethr =  1.05E-08,  avg # of iterations =  3.0

     negative rho (up, down):  6.433E-04 2.428E-03

     total cpu time spent up to now is     5172.2 secs

     total energy              =    -734.62468579 Ry
     Harris-Foulkes estimate   =    -734.62476638 Ry
     estimated scf accuracy    <       0.00007747 Ry

     total magnetization       =     1.02 Bohr mag/cell
     absolute magnetization    =     1.27 Bohr mag/cell

     iteration # 50     ecut=    70.00 Ry     beta= 0.70
     Davidson diagonalization with overlap
     ethr =  1.05E-08,  avg # of iterations =  3.0

     negative rho (up, down):  6.434E-04 2.433E-03

     total cpu time spent up to now is     5279.8 secs

     total energy              =    -734.62458602 Ry
     Harris-Foulkes estimate   =    -734.62470616 Ry
     estimated scf accuracy    <       0.00006573 Ry

     total magnetization       =     1.02 Bohr mag/cell
     absolute magnetization    =     1.25 Bohr mag/cell

     iteration # 51     ecut=    70.00 Ry     beta= 0.70
     Davidson diagonalization with overlap
     ethr =  1.05E-08,  avg # of iterations =  3.0

     negative rho (up, down):  6.433E-04 2.477E-03

     total cpu time spent up to now is     5391.2 secs

     total energy              =    -734.62460101 Ry
     Harris-Foulkes estimate   =    -734.62462869 Ry
     estimated scf accuracy    <       0.00020354 Ry

     total magnetization       =     1.03 Bohr mag/cell
     absolute magnetization    =     1.22 Bohr mag/cell

     iteration # 52     ecut=    70.00 Ry     beta= 0.70
     Davidson diagonalization with overlap
     ethr =  1.05E-08,  avg # of iterations =  4.0

     negative rho (up, down):  6.431E-04 2.508E-03

     total cpu time spent up to now is     5524.5 secs

     total energy              =    -734.62487204 Ry
     Harris-Foulkes estimate   =    -734.62491279 Ry
     estimated scf accuracy    <       0.00020574 Ry

     total magnetization       =     1.01 Bohr mag/cell
     absolute magnetization    =     1.32 Bohr mag/cell

     iteration # 53     ecut=    70.00 Ry     beta= 0.70
     Davidson diagonalization with overlap
     ethr =  1.05E-08,  avg # of iterations =  2.0

     negative rho (up, down):  6.431E-04 2.543E-03

     total cpu time spent up to now is     5618.2 secs

     total energy              =    -734.62487377 Ry
     Harris-Foulkes estimate   =    -734.62487859 Ry
     estimated scf accuracy    <       0.00012211 Ry

     total magnetization       =     1.01 Bohr mag/cell
     absolute magnetization    =     1.31 Bohr mag/cell

     iteration # 54     ecut=    70.00 Ry     beta= 0.70
     Davidson diagonalization with overlap
     ethr =  1.05E-08,  avg # of iterations =  2.0

     negative rho (up, down):  6.432E-04 2.550E-03

     total cpu time spent up to now is     5707.9 secs

     total energy              =    -734.62488935 Ry
     Harris-Foulkes estimate   =    -734.62487534 Ry
     estimated scf accuracy    <       0.00009281 Ry

     total magnetization       =     1.02 Bohr mag/cell
     absolute magnetization    =     1.31 Bohr mag/cell

     iteration # 55     ecut=    70.00 Ry     beta= 0.70
     Davidson diagonalization with overlap
     ethr =  1.05E-08,  avg # of iterations =  1.0

     negative rho (up, down):  6.435E-04 2.580E-03

     total cpu time spent up to now is     5798.2 secs

     total energy              =    -734.62493905 Ry
     Harris-Foulkes estimate   =    -734.62489016 Ry
     estimated scf accuracy    <       0.00009853 Ry

     total magnetization       =     1.02 Bohr mag/cell
     absolute magnetization    =     1.32 Bohr mag/cell

     iteration # 56     ecut=    70.00 Ry     beta= 0.70
     Davidson diagonalization with overlap
     ethr =  1.05E-08,  avg # of iterations =  3.0

     negative rho (up, down):  6.438E-04 2.665E-03

     total cpu time spent up to now is     5910.3 secs

     total energy              =    -734.62491832 Ry
     Harris-Foulkes estimate   =    -734.62494838 Ry
     estimated scf accuracy    <       0.00020817 Ry

     total magnetization       =     1.08 Bohr mag/cell
     absolute magnetization    =     1.38 Bohr mag/cell

     iteration # 57     ecut=    70.00 Ry     beta= 0.70
     Davidson diagonalization with overlap
     ethr =  1.05E-08,  avg # of iterations =  3.5

     negative rho (up, down):  6.435E-04 2.759E-03

     total cpu time spent up to now is     6026.2 secs

     total energy              =    -734.62474290 Ry
     Harris-Foulkes estimate   =    -734.62492282 Ry
     estimated scf accuracy    <       0.00035488 Ry

     total magnetization       =     1.17 Bohr mag/cell
     absolute magnetization    =     1.43 Bohr mag/cell

     iteration # 58     ecut=    70.00 Ry     beta= 0.70
     Davidson diagonalization with overlap
     ethr =  1.05E-08,  avg # of iterations =  3.5

     negative rho (up, down):  6.440E-04 2.794E-03

     total cpu time spent up to now is     6146.2 secs

     total energy              =    -734.62478800 Ry
     Harris-Foulkes estimate   =    -734.62480417 Ry
     estimated scf accuracy    <       0.00005150 Ry

     total magnetization       =     1.11 Bohr mag/cell
     absolute magnetization    =     1.34 Bohr mag/cell

     iteration # 59     ecut=    70.00 Ry     beta= 0.70
     Davidson diagonalization with overlap
     ethr =  1.05E-08,  avg # of iterations =  3.5

     negative rho (up, down):  6.444E-04 2.860E-03

     total cpu time spent up to now is     6270.3 secs

     total energy              =    -734.62480408 Ry
     Harris-Foulkes estimate   =    -734.62481042 Ry
     estimated scf accuracy    <       0.00006003 Ry

     total magnetization       =     1.17 Bohr mag/cell
     absolute magnetization    =     1.39 Bohr mag/cell

     iteration # 60     ecut=    70.00 Ry     beta= 0.70
     Davidson diagonalization with overlap
     ethr =  1.05E-08,  avg # of iterations =  3.0

     negative rho (up, down):  6.452E-04 2.931E-03

     total cpu time spent up to now is     6388.2 secs

     total energy              =    -734.62490708 Ry
     Harris-Foulkes estimate   =    -734.62483204 Ry
     estimated scf accuracy    <       0.00078512 Ry

     total magnetization       =     1.08 Bohr mag/cell
     absolute magnetization    =     1.34 Bohr mag/cell

     iteration # 61     ecut=    70.00 Ry     beta= 0.70
     Davidson diagonalization with overlap
     ethr =  1.05E-08,  avg # of iterations =  4.0

     negative rho (up, down):  6.454E-04 2.906E-03

     total cpu time spent up to now is     6521.4 secs

     total energy              =    -734.62508832 Ry
     Harris-Foulkes estimate   =    -734.62506872 Ry
     estimated scf accuracy    <       0.00650654 Ry

     total magnetization       =     0.84 Bohr mag/cell
     absolute magnetization    =     1.25 Bohr mag/cell

     iteration # 62     ecut=    70.00 Ry     beta= 0.70
     Davidson diagonalization with overlap
     ethr =  1.05E-08,  avg # of iterations =  2.5

     negative rho (up, down):  6.455E-04 2.909E-03

     total cpu time spent up to now is     6617.3 secs

     total energy              =    -734.62514408 Ry
     Harris-Foulkes estimate   =    -734.62509588 Ry
     estimated scf accuracy    <       0.00553221 Ry

     total magnetization       =     0.85 Bohr mag/cell
     absolute magnetization    =     1.27 Bohr mag/cell

     iteration # 63     ecut=    70.00 Ry     beta= 0.70
     Davidson diagonalization with overlap
     ethr =  1.05E-08,  avg # of iterations =  3.5

     negative rho (up, down):  6.451E-04 2.911E-03

     total cpu time spent up to now is     6740.2 secs

     total energy              =    -734.62503500 Ry
     Harris-Foulkes estimate   =    -734.62518947 Ry
     estimated scf accuracy    <       0.00279147 Ry

     total magnetization       =     0.94 Bohr mag/cell
     absolute magnetization    =     1.34 Bohr mag/cell

     iteration # 64     ecut=    70.00 Ry     beta= 0.70
     Davidson diagonalization with overlap
     ethr =  1.05E-08,  avg # of iterations =  3.5

     negative rho (up, down):  6.448E-04 2.770E-03

     total cpu time spent up to now is     6862.3 secs

     total energy              =    -734.62496189 Ry
     Harris-Foulkes estimate   =    -734.62505569 Ry
     estimated scf accuracy    <       0.00471868 Ry

     total magnetization       =     0.83 Bohr mag/cell
     absolute magnetization    =     1.27 Bohr mag/cell

     iteration # 65     ecut=    70.00 Ry     beta= 0.70
     Davidson diagonalization with overlap
     ethr =  1.05E-08,  avg # of iterations =  4.0

     negative rho (up, down):  6.451E-04 2.893E-03

     total cpu time spent up to now is     6999.7 secs

     total energy              =    -734.62514318 Ry
     Harris-Foulkes estimate   =    -734.62511164 Ry
     estimated scf accuracy    <       0.00187440 Ry

     total magnetization       =     0.83 Bohr mag/cell
     absolute magnetization    =     1.32 Bohr mag/cell

     iteration # 66     ecut=    70.00 Ry     beta= 0.70
     Davidson diagonalization with overlap
     ethr =  1.05E-08,  avg # of iterations =  4.0

     negative rho (up, down):  6.452E-04 2.984E-03

     total cpu time spent up to now is     7123.4 secs

     total energy              =    -734.62521991 Ry
     Harris-Foulkes estimate   =    -734.62521085 Ry
     estimated scf accuracy    <       0.00016142 Ry

     total magnetization       =     0.94 Bohr mag/cell
     absolute magnetization    =     1.41 Bohr mag/cell

     iteration # 67     ecut=    70.00 Ry     beta= 0.70
     Davidson diagonalization with overlap
     ethr =  1.05E-08,  avg # of iterations =  3.0

     negative rho (up, down):  6.451E-04 2.994E-03

     total cpu time spent up to now is     7224.3 secs

     total energy              =    -734.62521334 Ry
     Harris-Foulkes estimate   =    -734.62522055 Ry
     estimated scf accuracy    <       0.00001866 Ry

     total magnetization       =     0.99 Bohr mag/cell
     absolute magnetization    =     1.43 Bohr mag/cell

     iteration # 68     ecut=    70.00 Ry     beta= 0.70
     Davidson diagonalization with overlap
     ethr =  8.93E-09,  avg # of iterations =  2.5

     negative rho (up, down):  6.453E-04 3.024E-03

     total cpu time spent up to now is     7320.2 secs

     total energy              =    -734.62521702 Ry
     Harris-Foulkes estimate   =    -734.62521847 Ry
     estimated scf accuracy    <       0.00006849 Ry

     total magnetization       =     0.98 Bohr mag/cell
     absolute magnetization    =     1.42 Bohr mag/cell

     iteration # 69     ecut=    70.00 Ry     beta= 0.70
     Davidson diagonalization with overlap
     ethr =  8.93E-09,  avg # of iterations =  2.5

     negative rho (up, down):  6.452E-04 3.044E-03

     total cpu time spent up to now is     7420.3 secs

     total energy              =    -734.62522250 Ry
     Harris-Foulkes estimate   =    -734.62522296 Ry
     estimated scf accuracy    <       0.00000654 Ry

     total magnetization       =     0.99 Bohr mag/cell
     absolute magnetization    =     1.43 Bohr mag/cell

     iteration # 70     ecut=    70.00 Ry     beta= 0.70
     Davidson diagonalization with overlap
     ethr =  3.13E-09,  avg # of iterations =  2.0

     negative rho (up, down):  6.452E-04 3.039E-03

     total cpu time spent up to now is     7510.0 secs

     total energy              =    -734.62522316 Ry
     Harris-Foulkes estimate   =    -734.62522306 Ry
     estimated scf accuracy    <       0.00000183 Ry

     total magnetization       =     0.99 Bohr mag/cell
     absolute magnetization    =     1.44 Bohr mag/cell

     iteration # 71     ecut=    70.00 Ry     beta= 0.70
     Davidson diagonalization with overlap
     ethr =  8.77E-10,  avg # of iterations =  3.0

     negative rho (up, down):  6.452E-04 3.042E-03

     total cpu time spent up to now is     7627.6 secs

     total energy              =    -734.62522456 Ry
     Harris-Foulkes estimate   =    -734.62522431 Ry
     estimated scf accuracy    <       0.00000107 Ry

     total magnetization       =     0.99 Bohr mag/cell
     absolute magnetization    =     1.43 Bohr mag/cell

     iteration # 72     ecut=    70.00 Ry     beta= 0.70
     Davidson diagonalization with overlap
     ethr =  5.10E-10,  avg # of iterations =  3.0

     negative rho (up, down):  6.451E-04 3.042E-03

     total cpu time spent up to now is     7728.6 secs

     total energy              =    -734.62522477 Ry
     Harris-Foulkes estimate   =    -734.62522485 Ry
     estimated scf accuracy    <       0.00000162 Ry

     total magnetization       =     0.99 Bohr mag/cell
     absolute magnetization    =     1.43 Bohr mag/cell

     iteration # 73     ecut=    70.00 Ry     beta= 0.70
     Davidson diagonalization with overlap
     ethr =  5.10E-10,  avg # of iterations =  3.0

     negative rho (up, down):  6.451E-04 3.034E-03

     total cpu time spent up to now is     7827.5 secs

     total energy              =    -734.62522494 Ry
     Harris-Foulkes estimate   =    -734.62522504 Ry
     estimated scf accuracy    <       0.00000327 Ry

     total magnetization       =     0.99 Bohr mag/cell
     absolute magnetization    =     1.43 Bohr mag/cell

     iteration # 74     ecut=    70.00 Ry     beta= 0.70
     Davidson diagonalization with overlap
     ethr =  5.10E-10,  avg # of iterations =  1.0

     negative rho (up, down):  6.451E-04 3.031E-03

     total cpu time spent up to now is     7917.3 secs

     total energy              =    -734.62522470 Ry
     Harris-Foulkes estimate   =    -734.62522500 Ry
     estimated scf accuracy    <       0.00000177 Ry

     total magnetization       =     0.99 Bohr mag/cell
     absolute magnetization    =     1.43 Bohr mag/cell

     iteration # 75     ecut=    70.00 Ry     beta= 0.70
     Davidson diagonalization with overlap
     ethr =  5.10E-10,  avg # of iterations =  2.5

     negative rho (up, down):  6.452E-04 3.036E-03

     Magnetic moment per site:
     atom:    1    charge:    0.2198    magn:    0.0012    constr:    0.0000
     atom:    2    charge:    0.2198    magn:    0.0012    constr:    0.0000
     atom:    3    charge:    1.7156    magn:    0.0007    constr:    0.0000
     atom:    4    charge:    1.7152    magn:    0.0010    constr:    0.0000
     atom:    5    charge:    1.7170    magn:   -0.0005    constr:    0.0000
     atom:    6    charge:    1.7146    magn:    0.0003    constr:    0.0000
     atom:    7    charge:    1.7170    magn:   -0.0000    constr:    0.0000
     atom:    8    charge:    1.7159    magn:    0.0041    constr:    0.0000
     atom:    9    charge:    1.7163    magn:    0.0034    constr:    0.0000
     atom:   10    charge:    1.7170    magn:   -0.0007    constr:    0.0000
     atom:   11    charge:    1.7160    magn:    0.0008    constr:    0.0000
     atom:   12    charge:    1.7170    magn:   -0.0009    constr:    0.0000
     atom:   13    charge:    1.7160    magn:    0.0002    constr:    0.0000
     atom:   14    charge:    1.7167    magn:    0.0002    constr:    0.0000
     atom:   15    charge:    1.7123    magn:   -0.0005    constr:    0.0000
     atom:   16    charge:    1.7129    magn:    0.0190    constr:    0.0000
     atom:   17    charge:    1.7213    magn:    0.0004    constr:    0.0000
     atom:   18    charge:    1.7127    magn:    0.0235    constr:    0.0000
     atom:   19    charge:    1.7144    magn:    0.0145    constr:    0.0000
     atom:   20    charge:    1.7168    magn:   -0.0016    constr:    0.0000
     atom:   21    charge:    1.7160    magn:    0.0008    constr:    0.0000
     atom:   22    charge:    1.7170    magn:   -0.0009    constr:    0.0000
     atom:   23    charge:    1.7156    magn:    0.0007    constr:    0.0000
     atom:   24    charge:    1.7152    magn:    0.0010    constr:    0.0000
     atom:   25    charge:    1.7123    magn:   -0.0005    constr:    0.0000
     atom:   26    charge:    1.7128    magn:    0.0190    constr:    0.0000
     atom:   27    charge:    1.8112    magn:   -0.0206    constr:    0.0000
     atom:   28    charge:    7.0409    magn:    0.1515    constr:    0.0000
     atom:   29    charge:    1.8317    magn:    0.1218    constr:    0.0000
     atom:   30    charge:    1.7079    magn:   -0.0016    constr:    0.0000
     atom:   31    charge:    1.7129    magn:    0.0077    constr:    0.0000
     atom:   32    charge:    1.7150    magn:    0.0004    constr:    0.0000
     atom:   33    charge:    1.7170    magn:    0.0003    constr:    0.0000
     atom:   34    charge:    1.7152    magn:   -0.0000    constr:    0.0000
     atom:   35    charge:    1.7170    magn:   -0.0005    constr:    0.0000
     atom:   36    charge:    1.7146    magn:    0.0003    constr:    0.0000
     atom:   37    charge:    1.7213    magn:    0.0004    constr:    0.0000
     atom:   38    charge:    1.7127    magn:    0.0235    constr:    0.0000
     atom:   39    charge:    1.8318    magn:    0.1218    constr:    0.0000
     atom:   40    charge:    1.7079    magn:   -0.0015    constr:    0.0000
     atom:   41    charge:    1.7225    magn:    0.0077    constr:    0.0000
     atom:   42    charge:    1.7146    magn:   -0.0008    constr:    0.0000
     atom:   43    charge:    1.7170    magn:    0.0003    constr:    0.0000
     atom:   44    charge:    1.7152    magn:   -0.0000    constr:    0.0000
     atom:   45    charge:    1.7213    magn:   -0.0013    constr:    0.0000
     atom:   46    charge:    1.7152    magn:    0.0003    constr:    0.0000
     atom:   47    charge:    1.7171    magn:   -0.0000    constr:    0.0000
     atom:   48    charge:    1.7159    magn:    0.0041    constr:    0.0000
     atom:   49    charge:    1.7144    magn:    0.0145    constr:    0.0000
     atom:   50    charge:    1.7168    magn:   -0.0016    constr:    0.0000
     atom:   51    charge:    1.7129    magn:    0.0077    constr:    0.0000
     atom:   52    charge:    1.7150    magn:    0.0004    constr:    0.0000

     total cpu time spent up to now is     8018.1 secs

     End of self-consistent calculation

 ------ SPIN UP ------------


          k = 0.0000 0.0000 0.0000 ( 87777 PWs)   bands (ev):

   -19.8322 -19.0037 -18.9633 -18.9039 -18.8867 -18.8368 -18.7588 -17.1554
   -17.1491 -17.1189 -17.0889 -17.0696 -16.8059 -16.3235 -16.3008 -16.1813
   -16.1668 -16.1511 -15.7698 -14.4159 -14.3792 -14.1139 -14.0276 -14.0214
   -13.5770 -13.1558 -13.1519 -13.0699 -12.9311 -12.9237 -12.6251 -12.2851
   -12.2675 -11.7043 -11.5995 -11.5979 -11.1689 -10.9077 -10.8751  -9.6604
    -9.5017  -9.3538  -9.3500  -9.2336  -9.2250  -9.2250  -9.2094  -9.1345
    -9.1344  -9.0387  -9.0302  -8.7871  -8.7037  -8.6957  -7.8978  -7.8820
    -7.7634  -7.6544  -7.6296  -7.5273  -7.5219  -6.8445  -6.8278  -6.8261
    -6.7962  -6.7744  -6.7234  -6.6893  -6.6113  -6.5991  -6.5728  -6.5586
    -6.5528  -6.5126  -6.3917  -6.3642  -6.2580  -5.6046  -5.6043  -5.0152
    -4.9480  -4.8742  -4.8678  -4.7541  -4.7240  -4.7206  -4.5506  -4.5385
    -4.5299  -3.9487  -3.8565  -3.8375  -3.8179  -3.8034  -3.7760  -3.6445
    -3.6299  -2.8501  -1.8759  -1.8214  -1.8172  -1.7404  -1.7301  -0.9649
    -0.8942  -0.7646   0.9165   0.9493   0.9528   1.0692   1.0898   1.5796
     2.4723   2.7662   2.7996   2.8448   2.8663   2.9149   3.4383   3.5089
     3.6280   3.7310   3.7360   3.7563   3.9268   4.1658

     occupation numbers 
     1.0000   1.0000   1.0000   1.0000   1.0000   1.0000   1.0000   1.0000
     1.0000   1.0000   1.0000   1.0000   1.0000   1.0000   1.0000   1.0000
     1.0000   1.0000   1.0000   1.0000   1.0000   1.0000   1.0000   1.0000
     1.0000   1.0000   1.0000   1.0000   1.0000   1.0000   1.0000   1.0000
     1.0000   1.0000   1.0000   1.0000   1.0000   1.0000   1.0000   1.0000
     1.0000   1.0000   1.0000   1.0000   1.0000   1.0000   1.0000   1.0000
     1.0000   1.0000   1.0000   1.0000   1.0000   1.0000   1.0000   1.0000
     1.0000   1.0000   1.0000   1.0000   1.0000   1.0000   1.0000   1.0000
     1.0000   1.0000   1.0000   1.0000   1.0000   1.0000   1.0000   1.0000
     1.0000   1.0000   1.0000   1.0000   1.0000   1.0000   1.0000   1.0000
     1.0000   1.0000   1.0000   1.0000   1.0000   1.0000   1.0000   1.0000
     1.0000   1.0000   1.0000   1.0000   1.0000   1.0000   1.0000   1.0000
     1.0000   1.0000   1.0000   1.0000   1.0000   1.0000   1.0000   1.0000
     0.9965   0.0000   0.0000   0.0000   0.0000   0.0000   0.0000   0.0000
     0.0000   0.0000   0.0000   0.0000   0.0000   0.0000   0.0000   0.0000
     0.0000   0.0000   0.0000   0.0000   0.0000   0.0000

 ------ SPIN DOWN ----------


          k = 0.0000 0.0000 0.0000 ( 87777 PWs)   bands (ev):

   -19.8094 -18.9866 -18.9251 -18.8952 -18.8776 -18.8340 -18.6895 -17.1230
   -17.1198 -17.1013 -17.0788 -17.0302 -16.7748 -16.2907 -16.2658 -16.1722
   -16.1436 -16.1313 -15.7025 -14.3184 -14.3119 -14.0909 -14.0196 -14.0117
   -13.5380 -13.1311 -13.1285 -13.0571 -12.9161 -12.8708 -12.5707 -12.1912
   -12.1584 -11.6860 -11.5804 -11.5504 -11.0898 -10.7673 -10.7508  -9.5691
    -9.4620  -9.3386  -9.3268  -9.2257  -9.2165  -9.2158  -9.2012  -9.0424
    -8.9844  -8.9824  -8.8934  -8.7013  -8.6541  -8.6356  -7.8872  -7.8573
    -7.7493  -7.6015  -7.5846  -7.5170  -7.4990  -6.8450  -6.8242  -6.7944
    -6.7640  -6.7552  -6.7139  -6.6732  -6.5885  -6.5800  -6.5669  -6.5525
    -6.5484  -6.5053  -6.3493  -6.3290  -6.1999  -5.5893  -5.5672  -4.9961
    -4.9375  -4.8538  -4.8469  -4.7500  -4.7232  -4.7199  -4.5371  -4.5179
    -4.4882  -3.8641  -3.8532  -3.8314  -3.7867  -3.7838  -3.7758  -3.6309
    -3.6086  -2.7923  -1.8728  -1.8192  -1.8156  -1.7187  -1.7076  -0.9198
    -0.6300  -0.2912   0.9195   0.9532   0.9548   1.0988   1.1056   1.5959
     2.4727   2.7759   2.7990   2.8447   2.9007   2.9280   3.4484   3.5254
     3.6288   3.7305   3.7356   3.7551   3.9328   4.1671

     occupation numbers 
     1.0000   1.0000   1.0000   1.0000   1.0000   1.0000   1.0000   1.0000
     1.0000   1.0000   1.0000   1.0000   1.0000   1.0000   1.0000   1.0000
     1.0000   1.0000   1.0000   1.0000   1.0000   1.0000   1.0000   1.0000
     1.0000   1.0000   1.0000   1.0000   1.0000   1.0000   1.0000   1.0000
     1.0000   1.0000   1.0000   1.0000   1.0000   1.0000   1.0000   1.0000
     1.0000   1.0000   1.0000   1.0000   1.0000   1.0000   1.0000   1.0000
     1.0000   1.0000   1.0000   1.0000   1.0000   1.0000   1.0000   1.0000
     1.0000   1.0000   1.0000   1.0000   1.0000   1.0000   1.0000   1.0000
     1.0000   1.0000   1.0000   1.0000   1.0000   1.0000   1.0000   1.0000
     1.0000   1.0000   1.0000   1.0000   1.0000   1.0000   1.0000   1.0000
     1.0000   1.0000   1.0000   1.0000   1.0000   1.0000   1.0000   1.0000
     1.0000   1.0000   1.0000   1.0000   1.0000   1.0000   1.0000   1.0000
     1.0000   1.0000   1.0000   1.0000   1.0000   1.0000   1.0000   1.0035
     0.0000   0.0000   0.0000   0.0000   0.0000   0.0000   0.0000   0.0000
     0.0000   0.0000   0.0000   0.0000   0.0000   0.0000   0.0000   0.0000
     0.0000   0.0000   0.0000   0.0000   0.0000   0.0000

     the Fermi energy is    -0.8818 ev

!    total energy              =    -734.62522492 Ry
     Harris-Foulkes estimate   =    -734.62522497 Ry
     estimated scf accuracy    <       0.00000009 Ry

     The total energy is the sum of the following terms:

     one-electron contribution =   -2523.33599255 Ry
     hartree contribution      =    1317.57392535 Ry
     xc contribution           =    -276.12268251 Ry
     ewald contribution        =     747.25943590 Ry
     smearing contrib. (-TS)   =       0.00008889 Ry

     total magnetization       =     0.99 Bohr mag/cell
     absolute magnetization    =     1.43 Bohr mag/cell

     convergence has been achieved in  75 iterations

     Writing output data file cobre-top-distance-1.8.save/

     init_run     :     76.53s CPU     77.78s WALL (       1 calls)
     electrons    :   7810.29s CPU   7939.37s WALL (       1 calls)

     Called by init_run:
     wfcinit      :     41.08s CPU     41.33s WALL (       1 calls)
     wfcinit:atom :      0.04s CPU      0.08s WALL (       2 calls)
     wfcinit:wfcr :     40.68s CPU     40.82s WALL (       2 calls)
     potinit      :     14.77s CPU     15.19s WALL (       1 calls)
     hinit0       :     12.29s CPU     12.31s WALL (       1 calls)

     Called by electrons:
     c_bands      :   5160.03s CPU   5186.04s WALL (      75 calls)
     sum_band     :   1525.15s CPU   1567.72s WALL (      75 calls)
     v_of_rho     :    540.85s CPU    564.82s WALL (      76 calls)
     v_h          :      5.78s CPU      5.95s WALL (      76 calls)
     v_xc         :    535.07s CPU    558.88s WALL (      76 calls)
     newd         :    545.71s CPU    582.24s WALL (      76 calls)
     mix_rho      :     35.58s CPU     36.03s WALL (      75 calls)

     Called by c_bands:
     init_us_2    :     13.41s CPU     13.46s WALL (     302 calls)
     cegterg      :   5125.47s CPU   5151.31s WALL (     150 calls)

     Called by sum_band:
     sum_band:bec :      0.12s CPU      0.12s WALL (     150 calls)
     addusdens    :    944.48s CPU    983.93s WALL (      75 calls)

     Called by *egterg:
     h_psi        :   2579.52s CPU   2596.83s WALL (     605 calls)
     s_psi        :    870.45s CPU    870.70s WALL (     605 calls)
     g_psi        :      2.94s CPU      2.94s WALL (     453 calls)
     cdiaghg      :     42.90s CPU     42.90s WALL (     603 calls)
     cegterg:over :    700.76s CPU    700.95s WALL (     453 calls)
     cegterg:upda :    435.89s CPU    438.30s WALL (     453 calls)
     cegterg:last :    282.42s CPU    282.45s WALL (     153 calls)

     Called by h_psi:
     h_psi:pot    :   2576.46s CPU   2590.41s WALL (     605 calls)
     h_psi:calbec :    876.39s CPU    876.63s WALL (     605 calls)
     vloc_psi     :    829.12s CPU    842.69s WALL (     605 calls)
     add_vuspsi   :    870.95s CPU    871.09s WALL (     605 calls)

     General routines
     calbec       :   1228.33s CPU   1228.65s WALL (     755 calls)
     fft          :    325.30s CPU    334.76s WALL (    5694 calls)
     ffts         :      5.27s CPU      5.48s WALL (     302 calls)
     fftw         :    865.94s CPU    880.67s WALL (  113024 calls)
     interpolate  :     12.84s CPU     13.20s WALL (     152 calls)

     Parallel routines
     fft_scatt_xy :    207.18s CPU    209.87s WALL (  119020 calls)
     fft_scatt_yz :    412.89s CPU    430.88s WALL (  119020 calls)

     PWSCF        :      2h11m CPU      2h13m WALL


   This run was terminated on:   4:45:26   7Sep2022            

=------------------------------------------------------------------------------=
   JOB DONE.
=------------------------------------------------------------------------------=
