
     Program PWSCF v.6.4.1 starts on  6Sep2022 at 22:26:20 

     This program is part of the open-source Quantum ESPRESSO suite
     for quantum simulation of materials; please cite
         "P. Giannozzi et al., J. Phys.:Condens. Matter 21 395502 (2009);
         "P. Giannozzi et al., J. Phys.:Condens. Matter 29 465901 (2017);
          URL http://www.quantum-espresso.org", 
     in publications or presentations arising from this work. More details at
     http://www.quantum-espresso.org/quote

     Parallel version (MPI), running on     6 processors

     MPI processes distributed on     1 nodes
     R & G space division:  proc/nbgrp/npool/nimage =       6
     Reading input from distance-3.0.in

     Current dimensions of program PWSCF are:
     Max number of different atomic species (ntypx) = 10
     Max number of k-points (npk) =  40000
     Max angular momentum in pseudopotentials (lmaxx) =  3

     IMPORTANT: XC functional enforced from input :
     Exchange-correlation      = RVV10 ( 1  4 13  4 3 0)
     Any further DFT definition will be discarded
     Please, verify this is what you really want

               file H.pbe-rrkjus.UPF: wavefunction(s)  1S renormalized
               file Cu.pbe-dn-rrkjus_psl.1.0.0.UPF: wavefunction(s)  3D renormalized

     Subspace diagonalization in iterative solution of the eigenvalue problem:
     a serial algorithm will be used


     Parallelization info
     --------------------
     sticks:   dense  smooth     PW     G-vecs:    dense   smooth      PW
     Min        3051    1746    432               270999   117096   14629
     Max        3053    1747    437               271001   117099   14630
     Sum       18313   10477   2611              1626001   702581   87777



     bravais-lattice index     =            4
     lattice parameter (alat)  =      23.2937  a.u.
     unit-cell volume          =    8879.8548 (a.u.)^3
     number of atoms/cell      =           52
     number of atomic types    =            3
     number of electrons       =       209.00
     number of Kohn-Sham states=          126
     kinetic-energy cutoff     =      70.0000  Ry
     charge density cutoff     =     490.0000  Ry
     convergence threshold     =      1.0E-06
     mixing beta               =       0.7000
     number of iterations used =            8  plain     mixing
     Exchange-correlation      = RVV10 ( 1  4 13  4 3 0)

     celldm(1)=  23.293684  celldm(2)=   0.000000  celldm(3)=   0.811261
     celldm(4)=   0.000000  celldm(5)=   0.000000  celldm(6)=   0.000000

     crystal axes: (cart. coord. in units of alat)
               a(1) = (   1.000000   0.000000   0.000000 )  
               a(2) = (  -0.500000   0.866025   0.000000 )  
               a(3) = (   0.000000   0.000000   0.811261 )  

     reciprocal axes: (cart. coord. in units 2 pi/alat)
               b(1) = (  1.000000  0.577350 -0.000000 )  
               b(2) = (  0.000000  1.154701  0.000000 )  
               b(3) = (  0.000000 -0.000000  1.232649 )  


     PseudoPot. # 1 for H  read from file:
     /home/cristian/Escritorio/Proyecto_Grafeno/pseudopotenciales/H.pbe-rrkjus.UPF
     MD5 check sum: 7cc9d459525c9a0585f487a71c3c9563
     Pseudo is Ultrasoft, Zval =  1.0
     Generated by new atomic code, or converted to UPF format
     Using radial grid of 1061 points,  2 beta functions with: 
                l(1) =   0
                l(2) =   0
     Q(r) pseudized with 0 coefficients 


     PseudoPot. # 2 for C  read from file:
     /home/cristian/Escritorio/Proyecto_Grafeno/pseudopotenciales/C.pbe-n-rrkjus_psl.1.0.0.UPF
     MD5 check sum: 1fdd950c42eb37d8afe3dd2f8d12311e
     Pseudo is Ultrasoft + core correction, Zval =  4.0
     Generated using "atomic" code by A. Dal Corso v.6.3MaX
     Using radial grid of 1073 points,  4 beta functions with: 
                l(1) =   0
                l(2) =   0
                l(3) =   1
                l(4) =   1
     Q(r) pseudized with 0 coefficients 


     PseudoPot. # 3 for Cu read from file:
     /home/cristian/Escritorio/Proyecto_Grafeno/pseudopotenciales/Cu.pbe-dn-rrkjus_psl.1.0.0.UPF
     MD5 check sum: ba3d6c84e19846e79d48cdc68ff7152b
     Pseudo is Ultrasoft + core correction, Zval = 11.0
     Generated using "atomic" code by A. Dal Corso v.6.3
     Using radial grid of 1199 points,  6 beta functions with: 
                l(1) =   0
                l(2) =   0
                l(3) =   1
                l(4) =   1
                l(5) =   2
                l(6) =   2
     Q(r) pseudized with 0 coefficients 


     vdW kernel table read from file rVV10_kernel_table
     MD5 check sum: b8e2538accc0c0b3206b45ba4daaba6c

     atomic species   valence    mass     pseudopotential
        H              1.00     1.00794     H ( 1.00)
        C              4.00    12.01070     C ( 1.00)
        Cu            11.00    63.54600     Cu( 1.00)

     Starting magnetic structure 
     atomic species   magnetization
        H            0.500
        C            0.300
        Cu           0.800

     No symmetry found


                                    s                        frac. trans.

      isym =  1     identity                                     

 cryst.   s( 1) = (     1          0          0      )
                  (     0          1          0      )
                  (     0          0          1      )

 cart.    s( 1) = (  1.0000000  0.0000000  0.0000000 )
                  (  0.0000000  1.0000000  0.0000000 )
                  (  0.0000000  0.0000000  1.0000000 )


     point group C_1 (1)    
     there are  1 classes
     the character table:

       E    
A      1.00

     the symmetry operations in each class and the name of the first element:

     E        1
          identity                                               

   Cartesian axes

     site n.     atom                  positions (alat units)
         1           H   tau(   1) = (   0.1694937   0.4618802   0.2433783  )
         2           H   tau(   2) = (   0.2305063   0.4618802   0.2433783  )
         3           C   tau(   3) = (   0.0000000   0.0000000   0.0000000  )
         4           C   tau(   4) = (   0.0000000   0.1154701   0.0000000  )
         5           C   tau(   5) = (  -0.1000000   0.1732051   0.0000000  )
         6           C   tau(   6) = (  -0.1000000   0.2886751   0.0000000  )
         7           C   tau(   7) = (  -0.2000000   0.3464102   0.0000000  )
         8           C   tau(   8) = (  -0.2000000   0.4618802   0.0000000  )
         9           C   tau(   9) = (  -0.3000000   0.5196152   0.0000000  )
        10           C   tau(  10) = (  -0.3000000   0.6350853   0.0000000  )
        11           C   tau(  11) = (  -0.4000000   0.6928203   0.0000000  )
        12           C   tau(  12) = (  -0.4000000   0.8082904   0.0000000  )
        13           C   tau(  13) = (   0.2000000   0.0000000   0.0000000  )
        14           C   tau(  14) = (   0.2000000   0.1154701   0.0000000  )
        15           C   tau(  15) = (   0.1000000   0.1732051   0.0000000  )
        16           C   tau(  16) = (   0.1000000   0.2886751   0.0000000  )
        17           C   tau(  17) = (   0.0000000   0.3464102   0.0000000  )
        18           C   tau(  18) = (   0.0000000   0.4618802   0.0000000  )
        19           C   tau(  19) = (  -0.1000000   0.5196152   0.0000000  )
        20           C   tau(  20) = (  -0.1000000   0.6350853   0.0000000  )
        21           C   tau(  21) = (  -0.2000000   0.6928203   0.0000000  )
        22           C   tau(  22) = (  -0.2000000   0.8082904   0.0000000  )
        23           C   tau(  23) = (   0.4000000   0.0000000   0.0000000  )
        24           C   tau(  24) = (   0.4000000   0.1154701   0.0000000  )
        25           C   tau(  25) = (   0.3000000   0.1732051   0.0000000  )
        26           C   tau(  26) = (   0.3000000   0.2886751   0.0000000  )
        27           C   tau(  27) = (   0.2000000   0.3464102   0.0000000  )
        28           Cu  tau(  28) = (   0.2000000   0.4618802   0.0000000  )
        29           C   tau(  29) = (   0.1000000   0.5196152   0.0000000  )
        30           C   tau(  30) = (   0.1000000   0.6350853   0.0000000  )
        31           C   tau(  31) = (   0.0000000   0.6928203   0.0000000  )
        32           C   tau(  32) = (   0.0000000   0.8082904   0.0000000  )
        33           C   tau(  33) = (   0.6000000   0.0000000   0.0000000  )
        34           C   tau(  34) = (   0.6000000   0.1154701   0.0000000  )
        35           C   tau(  35) = (   0.5000000   0.1732051   0.0000000  )
        36           C   tau(  36) = (   0.5000000   0.2886751   0.0000000  )
        37           C   tau(  37) = (   0.4000000   0.3464102   0.0000000  )
        38           C   tau(  38) = (   0.4000000   0.4618802   0.0000000  )
        39           C   tau(  39) = (   0.3000000   0.5196152   0.0000000  )
        40           C   tau(  40) = (   0.3000000   0.6350853   0.0000000  )
        41           C   tau(  41) = (   0.2000000   0.6928203   0.0000000  )
        42           C   tau(  42) = (   0.2000000   0.8082904   0.0000000  )
        43           C   tau(  43) = (   0.8000000   0.0000000   0.0000000  )
        44           C   tau(  44) = (   0.8000000   0.1154701   0.0000000  )
        45           C   tau(  45) = (   0.7000000   0.1732051   0.0000000  )
        46           C   tau(  46) = (   0.7000000   0.2886751   0.0000000  )
        47           C   tau(  47) = (   0.6000000   0.3464102   0.0000000  )
        48           C   tau(  48) = (   0.6000000   0.4618802   0.0000000  )
        49           C   tau(  49) = (   0.5000000   0.5196152   0.0000000  )
        50           C   tau(  50) = (   0.5000000   0.6350853   0.0000000  )
        51           C   tau(  51) = (   0.4000000   0.6928203   0.0000000  )
        52           C   tau(  52) = (   0.4000000   0.8082904   0.0000000  )

   Crystallographic axes

     site n.     atom                  positions (cryst. coord.)
         1           H   tau(   1) = (  0.4361603  0.5333333  0.3000000  )
         2           H   tau(   2) = (  0.4971730  0.5333333  0.3000000  )
         3           C   tau(   3) = (  0.0000000  0.0000000  0.0000000  )
         4           C   tau(   4) = (  0.0666667  0.1333333  0.0000000  )
         5           C   tau(   5) = (  0.0000000  0.2000000  0.0000000  )
         6           C   tau(   6) = (  0.0666667  0.3333333  0.0000000  )
         7           C   tau(   7) = (  0.0000000  0.4000000  0.0000000  )
         8           C   tau(   8) = (  0.0666667  0.5333333  0.0000000  )
         9           C   tau(   9) = (  0.0000000  0.6000000  0.0000000  )
        10           C   tau(  10) = (  0.0666667  0.7333333  0.0000000  )
        11           C   tau(  11) = (  0.0000000  0.8000000  0.0000000  )
        12           C   tau(  12) = (  0.0666667  0.9333333  0.0000000  )
        13           C   tau(  13) = (  0.2000000  0.0000000  0.0000000  )
        14           C   tau(  14) = (  0.2666667  0.1333333  0.0000000  )
        15           C   tau(  15) = (  0.2000000  0.2000000  0.0000000  )
        16           C   tau(  16) = (  0.2666667  0.3333333  0.0000000  )
        17           C   tau(  17) = (  0.2000000  0.4000000  0.0000000  )
        18           C   tau(  18) = (  0.2666667  0.5333333  0.0000000  )
        19           C   tau(  19) = (  0.2000000  0.6000000  0.0000000  )
        20           C   tau(  20) = (  0.2666667  0.7333333  0.0000000  )
        21           C   tau(  21) = (  0.2000000  0.8000000  0.0000000  )
        22           C   tau(  22) = (  0.2666667  0.9333333  0.0000000  )
        23           C   tau(  23) = (  0.4000000  0.0000000  0.0000000  )
        24           C   tau(  24) = (  0.4666667  0.1333333  0.0000000  )
        25           C   tau(  25) = (  0.4000000  0.2000000  0.0000000  )
        26           C   tau(  26) = (  0.4666667  0.3333333  0.0000000  )
        27           C   tau(  27) = (  0.4000000  0.4000000  0.0000000  )
        28           Cu  tau(  28) = (  0.4666667  0.5333333  0.0000000  )
        29           C   tau(  29) = (  0.4000000  0.6000000  0.0000000  )
        30           C   tau(  30) = (  0.4666667  0.7333333  0.0000000  )
        31           C   tau(  31) = (  0.4000000  0.8000000  0.0000000  )
        32           C   tau(  32) = (  0.4666667  0.9333333  0.0000000  )
        33           C   tau(  33) = (  0.6000000  0.0000000  0.0000000  )
        34           C   tau(  34) = (  0.6666667  0.1333333  0.0000000  )
        35           C   tau(  35) = (  0.6000000  0.2000000  0.0000000  )
        36           C   tau(  36) = (  0.6666667  0.3333333  0.0000000  )
        37           C   tau(  37) = (  0.6000000  0.4000000  0.0000000  )
        38           C   tau(  38) = (  0.6666667  0.5333333  0.0000000  )
        39           C   tau(  39) = (  0.6000000  0.6000000  0.0000000  )
        40           C   tau(  40) = (  0.6666667  0.7333333  0.0000000  )
        41           C   tau(  41) = (  0.6000000  0.8000000  0.0000000  )
        42           C   tau(  42) = (  0.6666667  0.9333333  0.0000000  )
        43           C   tau(  43) = (  0.8000000  0.0000000  0.0000000  )
        44           C   tau(  44) = (  0.8666667  0.1333333  0.0000000  )
        45           C   tau(  45) = (  0.8000000  0.2000000  0.0000000  )
        46           C   tau(  46) = (  0.8666667  0.3333333  0.0000000  )
        47           C   tau(  47) = (  0.8000000  0.4000000  0.0000000  )
        48           C   tau(  48) = (  0.8666667  0.5333333  0.0000000  )
        49           C   tau(  49) = (  0.8000000  0.6000000  0.0000000  )
        50           C   tau(  50) = (  0.8666667  0.7333333  0.0000000  )
        51           C   tau(  51) = (  0.8000000  0.8000000  0.0000000  )
        52           C   tau(  52) = (  0.8666667  0.9333333  0.0000000  )

     number of k points=     1  Marzari-Vanderbilt smearing, width (Ry)=  0.0010
                       cart. coord. in units 2pi/alat
        k(    1) = (   0.0000000   0.0000000   0.0000000), wk =   1.0000000

                       cryst. coord.
        k(    1) = (   0.0000000   0.0000000   0.0000000), wk =   1.0000000

     Dense  grid:  1626001 G-vectors     FFT dimensions: ( 180, 180, 135)

     Smooth grid:   702581 G-vectors     FFT dimensions: ( 125, 125, 108)

     Dynamical RAM for                 wfc:      28.14 MB

     Dynamical RAM for     wfc (w. buffer):      84.42 MB

     Dynamical RAM for           str. fact:      12.41 MB

     Dynamical RAM for           local pot:       0.00 MB

     Dynamical RAM for          nlocal pot:      92.46 MB

     Dynamical RAM for                qrad:      19.73 MB

     Dynamical RAM for          rho,v,vnew:      58.92 MB

     Dynamical RAM for               rhoin:      19.64 MB

     Dynamical RAM for            rho*nmix:     132.32 MB

     Dynamical RAM for           G-vectors:      16.40 MB

     Dynamical RAM for          h,s,v(r/c):      11.63 MB

     Dynamical RAM for          <psi|beta>:       0.80 MB

     Dynamical RAM for                 psi:     112.56 MB

     Dynamical RAM for                hpsi:     112.56 MB

     Dynamical RAM for                spsi:     112.56 MB

     Dynamical RAM for      wfcinit/wfcrot:      93.45 MB

     Dynamical RAM for           addusdens:     975.89 MB

     Estimated static dynamical RAM per process >     486.96 MB

     Estimated max dynamical RAM per process >       1.43 GB

     Estimated total dynamical RAM >       8.57 GB
     Generating pointlists ...
     new r_m :   0.0252 (alat units)  0.5862 (a.u.) for type    1
     new r_m :   0.0476 (alat units)  1.1095 (a.u.) for type    2
     new r_m :   0.0476 (alat units)  1.1095 (a.u.) for type    3

     Check: negative core charge=   -0.000002

     Initial potential from superposition of free atoms

     starting charge  208.80532, renormalised to  209.00000

     negative rho (up, down):  6.201E-05 1.041E-02


---------------------------------------------------------------------------------
Carrying out rVV10 run using the following parameters:
Nqs =      20    Nr_points =    1024   r_max =   100.000
b_value =  6.30000    beta =  0.00901
     q_mesh =  0.00010000  0.00030000  0.00058939  0.00100810
               0.00161396  0.00249058  0.00375900  0.00559430
               0.00824984  0.01209221  0.01765183  0.02569619
               0.03733578  0.05417739  0.07854596  0.11380545
               0.16482331  0.23864234  0.34545298  0.50000000

Gradients computed in Reciprocal space

---------------------------------------------------------------------------------


     Starting wfcs are  207 randomized atomic wfcs

     total cpu time spent up to now is       79.4 secs

     Self-consistent Calculation

     iteration #  1     ecut=    70.00 Ry     beta= 0.70
     Davidson diagonalization with overlap
     ethr =  1.00E-02,  avg # of iterations =  5.5

     negative rho (up, down):  1.437E-04 1.081E-02

     total cpu time spent up to now is      230.3 secs

     total energy              =    -727.91024148 Ry
     Harris-Foulkes estimate   =    -734.84260025 Ry
     estimated scf accuracy    <      13.61331782 Ry

     total magnetization       =     7.00 Bohr mag/cell
     absolute magnetization    =     7.37 Bohr mag/cell

     iteration #  2     ecut=    70.00 Ry     beta= 0.70
     Davidson diagonalization with overlap
     ethr =  6.51E-03,  avg # of iterations =  3.5

     negative rho (up, down):  1.606E-04 9.554E-03

     total cpu time spent up to now is      368.2 secs

     total energy              =    -729.76348089 Ry
     Harris-Foulkes estimate   =    -743.73595283 Ry
     estimated scf accuracy    <      34.79814510 Ry

     total magnetization       =     3.00 Bohr mag/cell
     absolute magnetization    =     3.30 Bohr mag/cell

     iteration #  3     ecut=    70.00 Ry     beta= 0.70
     Davidson diagonalization with overlap
     ethr =  6.51E-03,  avg # of iterations =  5.0

     negative rho (up, down):  1.929E-04 7.885E-03

     total cpu time spent up to now is      492.9 secs

     total energy              =    -732.58675472 Ry
     Harris-Foulkes estimate   =    -735.73043753 Ry
     estimated scf accuracy    <       8.24611736 Ry

     total magnetization       =     1.00 Bohr mag/cell
     absolute magnetization    =     1.58 Bohr mag/cell

     iteration #  4     ecut=    70.00 Ry     beta= 0.70
     Davidson diagonalization with overlap
     ethr =  3.95E-03,  avg # of iterations =  3.0

     negative rho (up, down):  2.410E-04 8.027E-03

     total cpu time spent up to now is      616.9 secs

     total energy              =    -733.68684322 Ry
     Harris-Foulkes estimate   =    -735.22504434 Ry
     estimated scf accuracy    <       6.53120730 Ry

     total magnetization       =     3.00 Bohr mag/cell
     absolute magnetization    =     3.15 Bohr mag/cell

     iteration #  5     ecut=    70.00 Ry     beta= 0.70
     Davidson diagonalization with overlap
     ethr =  3.12E-03,  avg # of iterations =  3.0

     negative rho (up, down):  2.897E-04 1.164E-02

     total cpu time spent up to now is      728.7 secs

     total energy              =    -734.40791558 Ry
     Harris-Foulkes estimate   =    -734.95313279 Ry
     estimated scf accuracy    <       2.52391663 Ry

     total magnetization       =     1.00 Bohr mag/cell
     absolute magnetization    =     1.37 Bohr mag/cell

     iteration #  6     ecut=    70.00 Ry     beta= 0.70
     Davidson diagonalization with overlap
     ethr =  1.21E-03,  avg # of iterations =  2.0

     negative rho (up, down):  4.620E-04 1.179E-02

     total cpu time spent up to now is      835.3 secs

     total energy              =    -734.73285919 Ry
     Harris-Foulkes estimate   =    -734.75705019 Ry
     estimated scf accuracy    <       0.08560690 Ry

     total magnetization       =     1.00 Bohr mag/cell
     absolute magnetization    =     1.29 Bohr mag/cell

     iteration #  7     ecut=    70.00 Ry     beta= 0.70
     Davidson diagonalization with overlap
     ethr =  4.10E-05,  avg # of iterations = 10.0

     negative rho (up, down):  5.436E-04 6.542E-03

     total cpu time spent up to now is      963.8 secs

     total energy              =    -734.73990030 Ry
     Harris-Foulkes estimate   =    -734.77240958 Ry
     estimated scf accuracy    <       0.11104328 Ry

     total magnetization       =     1.00 Bohr mag/cell
     absolute magnetization    =     1.21 Bohr mag/cell

     iteration #  8     ecut=    70.00 Ry     beta= 0.70
     Davidson diagonalization with overlap
     ethr =  4.10E-05,  avg # of iterations =  3.0

     negative rho (up, down):  5.749E-04 4.404E-03

     total cpu time spent up to now is     1069.8 secs

     total energy              =    -734.75299420 Ry
     Harris-Foulkes estimate   =    -734.76247919 Ry
     estimated scf accuracy    <       0.05051083 Ry

     total magnetization       =     1.00 Bohr mag/cell
     absolute magnetization    =     1.19 Bohr mag/cell

     iteration #  9     ecut=    70.00 Ry     beta= 0.70
     Davidson diagonalization with overlap
     ethr =  2.42E-05,  avg # of iterations =  2.0

     negative rho (up, down):  6.183E-04 2.487E-03

     total cpu time spent up to now is     1166.7 secs

     total energy              =    -734.75688414 Ry
     Harris-Foulkes estimate   =    -734.75925176 Ry
     estimated scf accuracy    <       0.02960899 Ry

     total magnetization       =     1.00 Bohr mag/cell
     absolute magnetization    =     1.18 Bohr mag/cell

     iteration # 10     ecut=    70.00 Ry     beta= 0.70
     Davidson diagonalization with overlap
     ethr =  1.42E-05,  avg # of iterations =  1.0

     negative rho (up, down):  6.332E-04 1.970E-03

     total cpu time spent up to now is     1263.8 secs

     total energy              =    -734.75829751 Ry
     Harris-Foulkes estimate   =    -734.75836930 Ry
     estimated scf accuracy    <       0.00155935 Ry

     total magnetization       =     1.00 Bohr mag/cell
     absolute magnetization    =     1.13 Bohr mag/cell

     iteration # 11     ecut=    70.00 Ry     beta= 0.70
     Davidson diagonalization with overlap
     ethr =  7.46E-07,  avg # of iterations =  3.0

     negative rho (up, down):  6.356E-04 3.134E-03

     total cpu time spent up to now is     1365.5 secs

     total energy              =    -734.75816405 Ry
     Harris-Foulkes estimate   =    -734.75900728 Ry
     estimated scf accuracy    <       0.01856591 Ry

     total magnetization       =     1.00 Bohr mag/cell
     absolute magnetization    =     1.12 Bohr mag/cell

     iteration # 12     ecut=    70.00 Ry     beta= 0.70
     Davidson diagonalization with overlap
     ethr =  7.46E-07,  avg # of iterations =  2.0

     negative rho (up, down):  6.370E-04 2.386E-03

     total cpu time spent up to now is     1458.3 secs

     total energy              =    -734.75848316 Ry
     Harris-Foulkes estimate   =    -734.75863208 Ry
     estimated scf accuracy    <       0.00454356 Ry

     total magnetization       =     1.00 Bohr mag/cell
     absolute magnetization    =     1.11 Bohr mag/cell

     iteration # 13     ecut=    70.00 Ry     beta= 0.70
     Davidson diagonalization with overlap
     ethr =  7.46E-07,  avg # of iterations =  1.0

     negative rho (up, down):  6.298E-04 1.807E-03

     total cpu time spent up to now is     1551.0 secs

     total energy              =    -734.75855180 Ry
     Harris-Foulkes estimate   =    -734.75857545 Ry
     estimated scf accuracy    <       0.00080442 Ry

     total magnetization       =     1.00 Bohr mag/cell
     absolute magnetization    =     1.10 Bohr mag/cell

     iteration # 14     ecut=    70.00 Ry     beta= 0.70
     Davidson diagonalization with overlap
     ethr =  3.85E-07,  avg # of iterations =  1.5

     negative rho (up, down):  6.291E-04 1.620E-03

     total cpu time spent up to now is     1643.2 secs

     total energy              =    -734.75859281 Ry
     Harris-Foulkes estimate   =    -734.75859815 Ry
     estimated scf accuracy    <       0.00012361 Ry

     total magnetization       =     1.00 Bohr mag/cell
     absolute magnetization    =     1.09 Bohr mag/cell

     iteration # 15     ecut=    70.00 Ry     beta= 0.70
     Davidson diagonalization with overlap
     ethr =  5.91E-08,  avg # of iterations =  2.5

     negative rho (up, down):  6.287E-04 1.622E-03

     total cpu time spent up to now is     1737.4 secs

     total energy              =    -734.75859942 Ry
     Harris-Foulkes estimate   =    -734.75860558 Ry
     estimated scf accuracy    <       0.00003132 Ry

     total magnetization       =     1.00 Bohr mag/cell
     absolute magnetization    =     1.08 Bohr mag/cell

     iteration # 16     ecut=    70.00 Ry     beta= 0.70
     Davidson diagonalization with overlap
     ethr =  1.50E-08,  avg # of iterations =  2.0

     negative rho (up, down):  6.276E-04 1.623E-03

     total cpu time spent up to now is     1832.0 secs

     total energy              =    -734.75860418 Ry
     Harris-Foulkes estimate   =    -734.75860347 Ry
     estimated scf accuracy    <       0.00000373 Ry

     total magnetization       =     1.00 Bohr mag/cell
     absolute magnetization    =     1.07 Bohr mag/cell

     iteration # 17     ecut=    70.00 Ry     beta= 0.70
     Davidson diagonalization with overlap
     ethr =  1.79E-09,  avg # of iterations =  3.0

     negative rho (up, down):  6.267E-04 1.615E-03

     total cpu time spent up to now is     1953.4 secs

     total energy              =    -734.75860664 Ry
     Harris-Foulkes estimate   =    -734.75860611 Ry
     estimated scf accuracy    <       0.00005805 Ry

     total magnetization       =     1.00 Bohr mag/cell
     absolute magnetization    =     1.07 Bohr mag/cell

     iteration # 18     ecut=    70.00 Ry     beta= 0.70
     Davidson diagonalization with overlap
     ethr =  1.79E-09,  avg # of iterations =  2.5

     negative rho (up, down):  6.263E-04 1.635E-03

     total cpu time spent up to now is     2062.5 secs

     total energy              =    -734.75860683 Ry
     Harris-Foulkes estimate   =    -734.75860725 Ry
     estimated scf accuracy    <       0.00004843 Ry

     total magnetization       =     1.00 Bohr mag/cell
     absolute magnetization    =     1.07 Bohr mag/cell

     iteration # 19     ecut=    70.00 Ry     beta= 0.70
     Davidson diagonalization with overlap
     ethr =  1.79E-09,  avg # of iterations =  2.5

     negative rho (up, down):  6.262E-04 1.632E-03

     total cpu time spent up to now is     2156.9 secs

     total energy              =    -734.75860731 Ry
     Harris-Foulkes estimate   =    -734.75860734 Ry
     estimated scf accuracy    <       0.00002031 Ry

     total magnetization       =     1.00 Bohr mag/cell
     absolute magnetization    =     1.07 Bohr mag/cell

     iteration # 20     ecut=    70.00 Ry     beta= 0.70
     Davidson diagonalization with overlap
     ethr =  1.79E-09,  avg # of iterations =  1.5

     negative rho (up, down):  6.260E-04 1.628E-03

     total cpu time spent up to now is     2247.0 secs

     total energy              =    -734.75860713 Ry
     Harris-Foulkes estimate   =    -734.75860756 Ry
     estimated scf accuracy    <       0.00001441 Ry

     total magnetization       =     1.00 Bohr mag/cell
     absolute magnetization    =     1.07 Bohr mag/cell

     iteration # 21     ecut=    70.00 Ry     beta= 0.70
     Davidson diagonalization with overlap
     ethr =  1.79E-09,  avg # of iterations =  2.5

     negative rho (up, down):  6.261E-04 1.620E-03

     total cpu time spent up to now is     2343.2 secs

     total energy              =    -734.75860776 Ry
     Harris-Foulkes estimate   =    -734.75860773 Ry
     estimated scf accuracy    <       0.00000145 Ry

     total magnetization       =     1.00 Bohr mag/cell
     absolute magnetization    =     1.06 Bohr mag/cell

     iteration # 22     ecut=    70.00 Ry     beta= 0.70
     Davidson diagonalization with overlap
     ethr =  6.94E-10,  avg # of iterations =  1.5

     negative rho (up, down):  6.261E-04 1.627E-03

     total cpu time spent up to now is     2432.9 secs

     total energy              =    -734.75860774 Ry
     Harris-Foulkes estimate   =    -734.75860794 Ry
     estimated scf accuracy    <       0.00001321 Ry

     total magnetization       =     1.00 Bohr mag/cell
     absolute magnetization    =     1.06 Bohr mag/cell

     iteration # 23     ecut=    70.00 Ry     beta= 0.70
     Davidson diagonalization with overlap
     ethr =  6.94E-10,  avg # of iterations =  2.5

     negative rho (up, down):  6.261E-04 1.620E-03

     total cpu time spent up to now is     2525.7 secs

     total energy              =    -734.75860777 Ry
     Harris-Foulkes estimate   =    -734.75860792 Ry
     estimated scf accuracy    <       0.00000589 Ry

     total magnetization       =     1.00 Bohr mag/cell
     absolute magnetization    =     1.06 Bohr mag/cell

     iteration # 24     ecut=    70.00 Ry     beta= 0.70
     Davidson diagonalization with overlap
     ethr =  6.94E-10,  avg # of iterations =  2.0

     negative rho (up, down):  6.261E-04 1.620E-03

     total cpu time spent up to now is     2621.9 secs

     total energy              =    -734.75860785 Ry
     Harris-Foulkes estimate   =    -734.75860797 Ry
     estimated scf accuracy    <       0.00000425 Ry

     total magnetization       =     1.00 Bohr mag/cell
     absolute magnetization    =     1.06 Bohr mag/cell

     iteration # 25     ecut=    70.00 Ry     beta= 0.70
     Davidson diagonalization with overlap
     ethr =  6.94E-10,  avg # of iterations =  1.0

     negative rho (up, down):  6.261E-04 1.616E-03

     total cpu time spent up to now is     2711.4 secs

     total energy              =    -734.75860780 Ry
     Harris-Foulkes estimate   =    -734.75860791 Ry
     estimated scf accuracy    <       0.00000109 Ry

     total magnetization       =     1.00 Bohr mag/cell
     absolute magnetization    =     1.06 Bohr mag/cell

     iteration # 26     ecut=    70.00 Ry     beta= 0.70
     Davidson diagonalization with overlap
     ethr =  5.21E-10,  avg # of iterations =  2.5

     negative rho (up, down):  6.262E-04 1.612E-03

     Magnetic moment per site:
     atom:    1    charge:    0.2108    magn:   -0.0000    constr:    0.0000
     atom:    2    charge:    0.2108    magn:   -0.0000    constr:    0.0000
     atom:    3    charge:    1.7158    magn:    0.0016    constr:    0.0000
     atom:    4    charge:    1.7153    magn:    0.0017    constr:    0.0000
     atom:    5    charge:    1.7170    magn:    0.0000    constr:    0.0000
     atom:    6    charge:    1.7146    magn:   -0.0001    constr:    0.0000
     atom:    7    charge:    1.7170    magn:    0.0000    constr:    0.0000
     atom:    8    charge:    1.7154    magn:    0.0019    constr:    0.0000
     atom:    9    charge:    1.7158    magn:    0.0017    constr:    0.0000
     atom:   10    charge:    1.7171    magn:   -0.0009    constr:    0.0000
     atom:   11    charge:    1.7160    magn:    0.0005    constr:    0.0000
     atom:   12    charge:    1.7171    magn:   -0.0009    constr:    0.0000
     atom:   13    charge:    1.7160    magn:    0.0005    constr:    0.0000
     atom:   14    charge:    1.7169    magn:   -0.0009    constr:    0.0000
     atom:   15    charge:    1.7129    magn:    0.0067    constr:    0.0000
     atom:   16    charge:    1.7109    magn:    0.0136    constr:    0.0000
     atom:   17    charge:    1.7214    magn:    0.0029    constr:    0.0000
     atom:   18    charge:    1.7109    magn:    0.0139    constr:    0.0000
     atom:   19    charge:    1.7131    magn:    0.0077    constr:    0.0000
     atom:   20    charge:    1.7169    magn:   -0.0010    constr:    0.0000
     atom:   21    charge:    1.7160    magn:    0.0005    constr:    0.0000
     atom:   22    charge:    1.7171    magn:   -0.0009    constr:    0.0000
     atom:   23    charge:    1.7158    magn:    0.0016    constr:    0.0000
     atom:   24    charge:    1.7153    magn:    0.0017    constr:    0.0000
     atom:   25    charge:    1.7129    magn:    0.0067    constr:    0.0000
     atom:   26    charge:    1.7109    magn:    0.0136    constr:    0.0000
     atom:   27    charge:    1.8163    magn:    0.0735    constr:    0.0000
     atom:   28    charge:    7.0287    magn:    0.1548    constr:    0.0000
     atom:   29    charge:    1.8183    magn:    0.0824    constr:    0.0000
     atom:   30    charge:    1.7105    magn:    0.0120    constr:    0.0000
     atom:   31    charge:    1.7130    magn:    0.0072    constr:    0.0000
     atom:   32    charge:    1.7153    magn:    0.0016    constr:    0.0000
     atom:   33    charge:    1.7170    magn:    0.0001    constr:    0.0000
     atom:   34    charge:    1.7153    magn:   -0.0000    constr:    0.0000
     atom:   35    charge:    1.7170    magn:    0.0000    constr:    0.0000
     atom:   36    charge:    1.7146    magn:   -0.0001    constr:    0.0000
     atom:   37    charge:    1.7214    magn:    0.0029    constr:    0.0000
     atom:   38    charge:    1.7109    magn:    0.0139    constr:    0.0000
     atom:   39    charge:    1.8183    magn:    0.0823    constr:    0.0000
     atom:   40    charge:    1.7105    magn:    0.0120    constr:    0.0000
     atom:   41    charge:    1.7214    magn:    0.0034    constr:    0.0000
     atom:   42    charge:    1.7146    magn:   -0.0001    constr:    0.0000
     atom:   43    charge:    1.7170    magn:    0.0001    constr:    0.0000
     atom:   44    charge:    1.7152    magn:   -0.0000    constr:    0.0000
     atom:   45    charge:    1.7212    magn:   -0.0007    constr:    0.0000
     atom:   46    charge:    1.7152    magn:   -0.0000    constr:    0.0000
     atom:   47    charge:    1.7170    magn:    0.0000    constr:    0.0000
     atom:   48    charge:    1.7154    magn:    0.0019    constr:    0.0000
     atom:   49    charge:    1.7131    magn:    0.0077    constr:    0.0000
     atom:   50    charge:    1.7169    magn:   -0.0010    constr:    0.0000
     atom:   51    charge:    1.7130    magn:    0.0072    constr:    0.0000
     atom:   52    charge:    1.7153    magn:    0.0016    constr:    0.0000

     total cpu time spent up to now is     2801.8 secs

     End of self-consistent calculation

 ------ SPIN UP ------------


          k = 0.0000 0.0000 0.0000 ( 87777 PWs)   bands (ev):

   -19.8364 -18.9952 -18.9925 -18.9005 -18.8993 -18.8381 -18.7587 -17.1639
   -17.1638 -17.1281 -17.0838 -17.0827 -16.8048 -16.3241 -16.3227 -16.1790
   -16.1778 -16.1565 -15.7632 -14.4186 -14.4166 -14.1249 -14.0305 -14.0304
   -13.5716 -13.1623 -13.1620 -13.0759 -12.9328 -12.9319 -12.6269 -12.3090
   -12.3077 -11.7100 -11.6040 -11.6036 -11.1800 -10.9301 -10.9284  -9.5185
    -9.3600  -9.3598  -9.2392  -9.2294  -9.2294  -9.2198  -9.0941  -9.0882
    -9.0557  -9.0546  -8.9519  -8.7122  -8.7115  -7.9642  -7.8917  -7.8355
    -7.6590  -7.6572  -7.5303  -7.5297  -7.0452  -6.8525  -6.8390  -6.8381
    -6.8122  -6.7765  -6.7115  -6.7107  -6.6144  -6.6138  -6.5703  -6.5641
    -6.5634  -6.5178  -6.4672  -6.3933  -6.3909  -5.6088  -5.6086  -5.0243
    -4.9546  -4.9527  -4.8814  -4.8804  -4.7592  -4.7227  -4.7218  -4.5374
    -4.5371  -4.4540  -3.8488  -3.8479  -3.8140  -3.8134  -3.7792  -3.6358
    -3.6352  -3.3865  -1.8794  -1.8232  -1.8231  -1.7286  -1.7285  -1.2079
    -0.8267  -0.8254   0.9150   0.9508   0.9512   1.0974   1.0985   1.5071
     2.4899   2.7944   2.7972   2.8427   2.9271   2.9335   3.3839   3.4245
     3.5986   3.7279   3.7301   3.7521   3.9167   4.2543

     occupation numbers 
     1.0000   1.0000   1.0000   1.0000   1.0000   1.0000   1.0000   1.0000
     1.0000   1.0000   1.0000   1.0000   1.0000   1.0000   1.0000   1.0000
     1.0000   1.0000   1.0000   1.0000   1.0000   1.0000   1.0000   1.0000
     1.0000   1.0000   1.0000   1.0000   1.0000   1.0000   1.0000   1.0000
     1.0000   1.0000   1.0000   1.0000   1.0000   1.0000   1.0000   1.0000
     1.0000   1.0000   1.0000   1.0000   1.0000   1.0000   1.0000   1.0000
     1.0000   1.0000   1.0000   1.0000   1.0000   1.0000   1.0000   1.0000
     1.0000   1.0000   1.0000   1.0000   1.0000   1.0000   1.0000   1.0000
     1.0000   1.0000   1.0000   1.0000   1.0000   1.0000   1.0000   1.0000
     1.0000   1.0000   1.0000   1.0000   1.0000   1.0000   1.0000   1.0000
     1.0000   1.0000   1.0000   1.0000   1.0000   1.0000   1.0000   1.0000
     1.0000   1.0000   1.0000   1.0000   1.0000   1.0000   1.0000   1.0000
     1.0000   1.0000   1.0000   1.0000   1.0000   1.0000   1.0000   1.0000
     0.5358   0.4642   0.0000   0.0000   0.0000   0.0000   0.0000   0.0000
     0.0000   0.0000   0.0000   0.0000   0.0000   0.0000   0.0000   0.0000
     0.0000   0.0000   0.0000   0.0000   0.0000   0.0000

 ------ SPIN DOWN ----------


          k = 0.0000 0.0000 0.0000 ( 87777 PWs)   bands (ev):

   -19.8115 -18.9636 -18.9594 -18.8938 -18.8923 -18.8351 -18.6834 -17.1250
   -17.1247 -17.1121 -17.0628 -17.0596 -16.7715 -16.2872 -16.2853 -16.1581
   -16.1551 -16.1496 -15.6877 -14.3281 -14.3277 -14.1007 -14.0225 -14.0223
   -13.5293 -13.1370 -13.1366 -13.0629 -12.8974 -12.8941 -12.5624 -12.1988
   -12.1967 -11.6904 -11.5705 -11.5680 -11.0751 -10.7996 -10.7974  -9.4778
    -9.3408  -9.3400  -9.2315  -9.2207  -9.2206  -9.2077  -8.9990  -8.9986
    -8.9263  -8.9126  -8.8266  -8.6717  -8.6688  -7.9532  -7.8675  -7.8134
    -7.6098  -7.6086  -7.5132  -7.5117  -7.0143  -6.8380  -6.8369  -6.8155
    -6.7752  -6.7717  -6.6986  -6.6972  -6.5925  -6.5920  -6.5626  -6.5601
    -6.5595  -6.5116  -6.4471  -6.3521  -6.3499  -5.5820  -5.5804  -5.0052
    -4.9428  -4.8614  -4.8604  -4.7543  -4.7437  -4.7216  -4.7207  -4.5279
    -4.5272  -4.4378  -3.8448  -3.8437  -3.7886  -3.7879  -3.7800  -3.6176
    -3.6166  -3.3479  -1.8755  -1.8213  -1.8212  -1.7070  -1.7060  -1.1706
    -0.4410  -0.4089   0.9182   0.9541   0.9545   1.1208   1.1216   1.5196
     2.4904   2.7968   2.7992   2.8437   2.9544   2.9599   3.3872   3.4342
     3.6000   3.7272   3.7295   3.7512   3.9242   4.2545

     occupation numbers 
     1.0000   1.0000   1.0000   1.0000   1.0000   1.0000   1.0000   1.0000
     1.0000   1.0000   1.0000   1.0000   1.0000   1.0000   1.0000   1.0000
     1.0000   1.0000   1.0000   1.0000   1.0000   1.0000   1.0000   1.0000
     1.0000   1.0000   1.0000   1.0000   1.0000   1.0000   1.0000   1.0000
     1.0000   1.0000   1.0000   1.0000   1.0000   1.0000   1.0000   1.0000
     1.0000   1.0000   1.0000   1.0000   1.0000   1.0000   1.0000   1.0000
     1.0000   1.0000   1.0000   1.0000   1.0000   1.0000   1.0000   1.0000
     1.0000   1.0000   1.0000   1.0000   1.0000   1.0000   1.0000   1.0000
     1.0000   1.0000   1.0000   1.0000   1.0000   1.0000   1.0000   1.0000
     1.0000   1.0000   1.0000   1.0000   1.0000   1.0000   1.0000   1.0000
     1.0000   1.0000   1.0000   1.0000   1.0000   1.0000   1.0000   1.0000
     1.0000   1.0000   1.0000   1.0000   1.0000   1.0000   1.0000   1.0000
     1.0000   1.0000   1.0000   1.0000   1.0000   1.0000   1.0000   1.0000
     0.0000   0.0000   0.0000   0.0000   0.0000   0.0000   0.0000   0.0000
     0.0000   0.0000   0.0000   0.0000   0.0000   0.0000   0.0000   0.0000
     0.0000   0.0000   0.0000   0.0000   0.0000   0.0000

     the Fermi energy is    -0.8241 ev

!    total energy              =    -734.75860786 Ry
     Harris-Foulkes estimate   =    -734.75860789 Ry
     estimated scf accuracy    <       0.00000007 Ry

     The total energy is the sum of the following terms:

     one-electron contribution =   -2492.54423220 Ry
     hartree contribution      =    1302.04547215 Ry
     xc contribution           =    -275.93455567 Ry
     ewald contribution        =     731.67503430 Ry
     smearing contrib. (-TS)   =      -0.00032644 Ry

     total magnetization       =     1.00 Bohr mag/cell
     absolute magnetization    =     1.07 Bohr mag/cell

     convergence has been achieved in  26 iterations

     Writing output data file cobre-top-distance-3.0.save/

     init_run     :     76.45s CPU     78.17s WALL (       1 calls)
     electrons    :   2674.89s CPU   2722.55s WALL (       1 calls)

     Called by init_run:
     wfcinit      :     46.83s CPU     47.08s WALL (       1 calls)
     wfcinit:atom :      0.08s CPU      0.10s WALL (       2 calls)
     wfcinit:wfcr :     46.39s CPU     46.56s WALL (       2 calls)
     potinit      :     12.38s CPU     12.80s WALL (       1 calls)
     hinit0       :      7.75s CPU      7.78s WALL (       1 calls)

     Called by electrons:
     c_bands      :   1684.35s CPU   1692.83s WALL (      26 calls)
     sum_band     :    573.45s CPU    589.59s WALL (      26 calls)
     v_of_rho     :    204.72s CPU    213.56s WALL (      27 calls)
     v_h          :      2.19s CPU      2.26s WALL (      27 calls)
     v_xc         :    202.53s CPU    211.30s WALL (      27 calls)
     newd         :    209.24s CPU    224.35s WALL (      27 calls)
     mix_rho      :     12.52s CPU     12.75s WALL (      26 calls)

     Called by c_bands:
     init_us_2    :      5.10s CPU      5.14s WALL (     106 calls)
     cegterg      :   1671.27s CPU   1679.68s WALL (      52 calls)

     Called by sum_band:
     sum_band:bec :      0.04s CPU      0.04s WALL (      52 calls)
     addusdens    :    353.07s CPU    368.03s WALL (      26 calls)

     Called by *egterg:
     h_psi        :    897.60s CPU    903.66s WALL (     197 calls)
     s_psi        :    299.01s CPU    299.14s WALL (     197 calls)
     g_psi        :      0.96s CPU      0.96s WALL (     143 calls)
     cdiaghg      :     13.33s CPU     13.33s WALL (     195 calls)
     cegterg:over :    202.50s CPU    202.58s WALL (     143 calls)
     cegterg:upda :    118.00s CPU    118.62s WALL (     143 calls)
     cegterg:last :     87.98s CPU     88.00s WALL (      52 calls)

     Called by h_psi:
     h_psi:pot    :    896.56s CPU    901.61s WALL (     197 calls)
     h_psi:calbec :    298.98s CPU    299.11s WALL (     197 calls)
     vloc_psi     :    297.95s CPU    302.81s WALL (     197 calls)
     add_vuspsi   :    299.62s CPU    299.69s WALL (     197 calls)

     General routines
     calbec       :    429.41s CPU    429.56s WALL (     249 calls)
     fft          :    125.33s CPU    128.91s WALL (    2019 calls)
     ffts         :      2.09s CPU      2.18s WALL (     106 calls)
     fftw         :    318.81s CPU    324.06s WALL (   36570 calls)
     interpolate  :      4.99s CPU      5.14s WALL (      54 calls)

     Parallel routines
     fft_scatt_xy :     79.41s CPU     80.34s WALL (   38695 calls)
     fft_scatt_yz :    155.30s CPU    161.84s WALL (   38695 calls)

     PWSCF        :  45m52.81s CPU  46m42.51s WALL


   This run was terminated on:  23:13: 2   6Sep2022            

=------------------------------------------------------------------------------=
   JOB DONE.
=------------------------------------------------------------------------------=
