
     Program PWSCF v.6.4.1 starts on  6Sep2022 at 23:52:42 

     This program is part of the open-source Quantum ESPRESSO suite
     for quantum simulation of materials; please cite
         "P. Giannozzi et al., J. Phys.:Condens. Matter 21 395502 (2009);
         "P. Giannozzi et al., J. Phys.:Condens. Matter 29 465901 (2017);
          URL http://www.quantum-espresso.org", 
     in publications or presentations arising from this work. More details at
     http://www.quantum-espresso.org/quote

     Parallel version (MPI), running on     6 processors

     MPI processes distributed on     1 nodes
     R & G space division:  proc/nbgrp/npool/nimage =       6
     Reading input from distance-2.6.in

     Current dimensions of program PWSCF are:
     Max number of different atomic species (ntypx) = 10
     Max number of k-points (npk) =  40000
     Max angular momentum in pseudopotentials (lmaxx) =  3

     IMPORTANT: XC functional enforced from input :
     Exchange-correlation      = RVV10 ( 1  4 13  4 3 0)
     Any further DFT definition will be discarded
     Please, verify this is what you really want

               file H.pbe-rrkjus.UPF: wavefunction(s)  1S renormalized
               file Cu.pbe-dn-rrkjus_psl.1.0.0.UPF: wavefunction(s)  3D renormalized

     Subspace diagonalization in iterative solution of the eigenvalue problem:
     a serial algorithm will be used


     Parallelization info
     --------------------
     sticks:   dense  smooth     PW     G-vecs:    dense   smooth      PW
     Min        3051    1746    432               270999   117096   14629
     Max        3053    1747    437               271001   117099   14630
     Sum       18313   10477   2611              1626001   702581   87777



     bravais-lattice index     =            4
     lattice parameter (alat)  =      23.2937  a.u.
     unit-cell volume          =    8879.8548 (a.u.)^3
     number of atoms/cell      =           52
     number of atomic types    =            3
     number of electrons       =       209.00
     number of Kohn-Sham states=          126
     kinetic-energy cutoff     =      70.0000  Ry
     charge density cutoff     =     490.0000  Ry
     convergence threshold     =      1.0E-06
     mixing beta               =       0.7000
     number of iterations used =            8  plain     mixing
     Exchange-correlation      = RVV10 ( 1  4 13  4 3 0)

     celldm(1)=  23.293684  celldm(2)=   0.000000  celldm(3)=   0.811261
     celldm(4)=   0.000000  celldm(5)=   0.000000  celldm(6)=   0.000000

     crystal axes: (cart. coord. in units of alat)
               a(1) = (   1.000000   0.000000   0.000000 )  
               a(2) = (  -0.500000   0.866025   0.000000 )  
               a(3) = (   0.000000   0.000000   0.811261 )  

     reciprocal axes: (cart. coord. in units 2 pi/alat)
               b(1) = (  1.000000  0.577350 -0.000000 )  
               b(2) = (  0.000000  1.154701  0.000000 )  
               b(3) = (  0.000000 -0.000000  1.232649 )  


     PseudoPot. # 1 for H  read from file:
     /home/cristian/Escritorio/Proyecto_Grafeno/pseudopotenciales/H.pbe-rrkjus.UPF
     MD5 check sum: 7cc9d459525c9a0585f487a71c3c9563
     Pseudo is Ultrasoft, Zval =  1.0
     Generated by new atomic code, or converted to UPF format
     Using radial grid of 1061 points,  2 beta functions with: 
                l(1) =   0
                l(2) =   0
     Q(r) pseudized with 0 coefficients 


     PseudoPot. # 2 for C  read from file:
     /home/cristian/Escritorio/Proyecto_Grafeno/pseudopotenciales/C.pbe-n-rrkjus_psl.1.0.0.UPF
     MD5 check sum: 1fdd950c42eb37d8afe3dd2f8d12311e
     Pseudo is Ultrasoft + core correction, Zval =  4.0
     Generated using "atomic" code by A. Dal Corso v.6.3MaX
     Using radial grid of 1073 points,  4 beta functions with: 
                l(1) =   0
                l(2) =   0
                l(3) =   1
                l(4) =   1
     Q(r) pseudized with 0 coefficients 


     PseudoPot. # 3 for Cu read from file:
     /home/cristian/Escritorio/Proyecto_Grafeno/pseudopotenciales/Cu.pbe-dn-rrkjus_psl.1.0.0.UPF
     MD5 check sum: ba3d6c84e19846e79d48cdc68ff7152b
     Pseudo is Ultrasoft + core correction, Zval = 11.0
     Generated using "atomic" code by A. Dal Corso v.6.3
     Using radial grid of 1199 points,  6 beta functions with: 
                l(1) =   0
                l(2) =   0
                l(3) =   1
                l(4) =   1
                l(5) =   2
                l(6) =   2
     Q(r) pseudized with 0 coefficients 


     vdW kernel table read from file rVV10_kernel_table
     MD5 check sum: b8e2538accc0c0b3206b45ba4daaba6c

     atomic species   valence    mass     pseudopotential
        H              1.00     1.00794     H ( 1.00)
        C              4.00    12.01070     C ( 1.00)
        Cu            11.00    63.54600     Cu( 1.00)

     Starting magnetic structure 
     atomic species   magnetization
        H            0.500
        C            0.300
        Cu           0.800

     No symmetry found


                                    s                        frac. trans.

      isym =  1     identity                                     

 cryst.   s( 1) = (     1          0          0      )
                  (     0          1          0      )
                  (     0          0          1      )

 cart.    s( 1) = (  1.0000000  0.0000000  0.0000000 )
                  (  0.0000000  1.0000000  0.0000000 )
                  (  0.0000000  0.0000000  1.0000000 )


     point group C_1 (1)    
     there are  1 classes
     the character table:

       E    
A      1.00

     the symmetry operations in each class and the name of the first element:

     E        1
          identity                                               

   Cartesian axes

     site n.     atom                  positions (alat units)
         1           H   tau(   1) = (   0.1694937   0.4618802   0.2109279  )
         2           H   tau(   2) = (   0.2305063   0.4618802   0.2109279  )
         3           C   tau(   3) = (   0.0000000   0.0000000   0.0000000  )
         4           C   tau(   4) = (   0.0000000   0.1154701   0.0000000  )
         5           C   tau(   5) = (  -0.1000000   0.1732051   0.0000000  )
         6           C   tau(   6) = (  -0.1000000   0.2886751   0.0000000  )
         7           C   tau(   7) = (  -0.2000000   0.3464102   0.0000000  )
         8           C   tau(   8) = (  -0.2000000   0.4618802   0.0000000  )
         9           C   tau(   9) = (  -0.3000000   0.5196152   0.0000000  )
        10           C   tau(  10) = (  -0.3000000   0.6350853   0.0000000  )
        11           C   tau(  11) = (  -0.4000000   0.6928203   0.0000000  )
        12           C   tau(  12) = (  -0.4000000   0.8082904   0.0000000  )
        13           C   tau(  13) = (   0.2000000   0.0000000   0.0000000  )
        14           C   tau(  14) = (   0.2000000   0.1154701   0.0000000  )
        15           C   tau(  15) = (   0.1000000   0.1732051   0.0000000  )
        16           C   tau(  16) = (   0.1000000   0.2886751   0.0000000  )
        17           C   tau(  17) = (   0.0000000   0.3464102   0.0000000  )
        18           C   tau(  18) = (   0.0000000   0.4618802   0.0000000  )
        19           C   tau(  19) = (  -0.1000000   0.5196152   0.0000000  )
        20           C   tau(  20) = (  -0.1000000   0.6350853   0.0000000  )
        21           C   tau(  21) = (  -0.2000000   0.6928203   0.0000000  )
        22           C   tau(  22) = (  -0.2000000   0.8082904   0.0000000  )
        23           C   tau(  23) = (   0.4000000   0.0000000   0.0000000  )
        24           C   tau(  24) = (   0.4000000   0.1154701   0.0000000  )
        25           C   tau(  25) = (   0.3000000   0.1732051   0.0000000  )
        26           C   tau(  26) = (   0.3000000   0.2886751   0.0000000  )
        27           C   tau(  27) = (   0.2000000   0.3464102   0.0000000  )
        28           Cu  tau(  28) = (   0.2000000   0.4618802   0.0000000  )
        29           C   tau(  29) = (   0.1000000   0.5196152   0.0000000  )
        30           C   tau(  30) = (   0.1000000   0.6350853   0.0000000  )
        31           C   tau(  31) = (   0.0000000   0.6928203   0.0000000  )
        32           C   tau(  32) = (   0.0000000   0.8082904   0.0000000  )
        33           C   tau(  33) = (   0.6000000   0.0000000   0.0000000  )
        34           C   tau(  34) = (   0.6000000   0.1154701   0.0000000  )
        35           C   tau(  35) = (   0.5000000   0.1732051   0.0000000  )
        36           C   tau(  36) = (   0.5000000   0.2886751   0.0000000  )
        37           C   tau(  37) = (   0.4000000   0.3464102   0.0000000  )
        38           C   tau(  38) = (   0.4000000   0.4618802   0.0000000  )
        39           C   tau(  39) = (   0.3000000   0.5196152   0.0000000  )
        40           C   tau(  40) = (   0.3000000   0.6350853   0.0000000  )
        41           C   tau(  41) = (   0.2000000   0.6928203   0.0000000  )
        42           C   tau(  42) = (   0.2000000   0.8082904   0.0000000  )
        43           C   tau(  43) = (   0.8000000   0.0000000   0.0000000  )
        44           C   tau(  44) = (   0.8000000   0.1154701   0.0000000  )
        45           C   tau(  45) = (   0.7000000   0.1732051   0.0000000  )
        46           C   tau(  46) = (   0.7000000   0.2886751   0.0000000  )
        47           C   tau(  47) = (   0.6000000   0.3464102   0.0000000  )
        48           C   tau(  48) = (   0.6000000   0.4618802   0.0000000  )
        49           C   tau(  49) = (   0.5000000   0.5196152   0.0000000  )
        50           C   tau(  50) = (   0.5000000   0.6350853   0.0000000  )
        51           C   tau(  51) = (   0.4000000   0.6928203   0.0000000  )
        52           C   tau(  52) = (   0.4000000   0.8082904   0.0000000  )

   Crystallographic axes

     site n.     atom                  positions (cryst. coord.)
         1           H   tau(   1) = (  0.4361603  0.5333333  0.2600000  )
         2           H   tau(   2) = (  0.4971730  0.5333333  0.2600000  )
         3           C   tau(   3) = (  0.0000000  0.0000000  0.0000000  )
         4           C   tau(   4) = (  0.0666667  0.1333333  0.0000000  )
         5           C   tau(   5) = (  0.0000000  0.2000000  0.0000000  )
         6           C   tau(   6) = (  0.0666667  0.3333333  0.0000000  )
         7           C   tau(   7) = (  0.0000000  0.4000000  0.0000000  )
         8           C   tau(   8) = (  0.0666667  0.5333333  0.0000000  )
         9           C   tau(   9) = (  0.0000000  0.6000000  0.0000000  )
        10           C   tau(  10) = (  0.0666667  0.7333333  0.0000000  )
        11           C   tau(  11) = (  0.0000000  0.8000000  0.0000000  )
        12           C   tau(  12) = (  0.0666667  0.9333333  0.0000000  )
        13           C   tau(  13) = (  0.2000000  0.0000000  0.0000000  )
        14           C   tau(  14) = (  0.2666667  0.1333333  0.0000000  )
        15           C   tau(  15) = (  0.2000000  0.2000000  0.0000000  )
        16           C   tau(  16) = (  0.2666667  0.3333333  0.0000000  )
        17           C   tau(  17) = (  0.2000000  0.4000000  0.0000000  )
        18           C   tau(  18) = (  0.2666667  0.5333333  0.0000000  )
        19           C   tau(  19) = (  0.2000000  0.6000000  0.0000000  )
        20           C   tau(  20) = (  0.2666667  0.7333333  0.0000000  )
        21           C   tau(  21) = (  0.2000000  0.8000000  0.0000000  )
        22           C   tau(  22) = (  0.2666667  0.9333333  0.0000000  )
        23           C   tau(  23) = (  0.4000000  0.0000000  0.0000000  )
        24           C   tau(  24) = (  0.4666667  0.1333333  0.0000000  )
        25           C   tau(  25) = (  0.4000000  0.2000000  0.0000000  )
        26           C   tau(  26) = (  0.4666667  0.3333333  0.0000000  )
        27           C   tau(  27) = (  0.4000000  0.4000000  0.0000000  )
        28           Cu  tau(  28) = (  0.4666667  0.5333333  0.0000000  )
        29           C   tau(  29) = (  0.4000000  0.6000000  0.0000000  )
        30           C   tau(  30) = (  0.4666667  0.7333333  0.0000000  )
        31           C   tau(  31) = (  0.4000000  0.8000000  0.0000000  )
        32           C   tau(  32) = (  0.4666667  0.9333333  0.0000000  )
        33           C   tau(  33) = (  0.6000000  0.0000000  0.0000000  )
        34           C   tau(  34) = (  0.6666667  0.1333333  0.0000000  )
        35           C   tau(  35) = (  0.6000000  0.2000000  0.0000000  )
        36           C   tau(  36) = (  0.6666667  0.3333333  0.0000000  )
        37           C   tau(  37) = (  0.6000000  0.4000000  0.0000000  )
        38           C   tau(  38) = (  0.6666667  0.5333333  0.0000000  )
        39           C   tau(  39) = (  0.6000000  0.6000000  0.0000000  )
        40           C   tau(  40) = (  0.6666667  0.7333333  0.0000000  )
        41           C   tau(  41) = (  0.6000000  0.8000000  0.0000000  )
        42           C   tau(  42) = (  0.6666667  0.9333333  0.0000000  )
        43           C   tau(  43) = (  0.8000000  0.0000000  0.0000000  )
        44           C   tau(  44) = (  0.8666667  0.1333333  0.0000000  )
        45           C   tau(  45) = (  0.8000000  0.2000000  0.0000000  )
        46           C   tau(  46) = (  0.8666667  0.3333333  0.0000000  )
        47           C   tau(  47) = (  0.8000000  0.4000000  0.0000000  )
        48           C   tau(  48) = (  0.8666667  0.5333333  0.0000000  )
        49           C   tau(  49) = (  0.8000000  0.6000000  0.0000000  )
        50           C   tau(  50) = (  0.8666667  0.7333333  0.0000000  )
        51           C   tau(  51) = (  0.8000000  0.8000000  0.0000000  )
        52           C   tau(  52) = (  0.8666667  0.9333333  0.0000000  )

     number of k points=     1  Marzari-Vanderbilt smearing, width (Ry)=  0.0010
                       cart. coord. in units 2pi/alat
        k(    1) = (   0.0000000   0.0000000   0.0000000), wk =   1.0000000

                       cryst. coord.
        k(    1) = (   0.0000000   0.0000000   0.0000000), wk =   1.0000000

     Dense  grid:  1626001 G-vectors     FFT dimensions: ( 180, 180, 135)

     Smooth grid:   702581 G-vectors     FFT dimensions: ( 125, 125, 108)

     Dynamical RAM for                 wfc:      28.14 MB

     Dynamical RAM for     wfc (w. buffer):      84.42 MB

     Dynamical RAM for           str. fact:      12.41 MB

     Dynamical RAM for           local pot:       0.00 MB

     Dynamical RAM for          nlocal pot:      92.46 MB

     Dynamical RAM for                qrad:      19.73 MB

     Dynamical RAM for          rho,v,vnew:      58.92 MB

     Dynamical RAM for               rhoin:      19.64 MB

     Dynamical RAM for            rho*nmix:     132.32 MB

     Dynamical RAM for           G-vectors:      16.40 MB

     Dynamical RAM for          h,s,v(r/c):      11.63 MB

     Dynamical RAM for          <psi|beta>:       0.80 MB

     Dynamical RAM for                 psi:     112.56 MB

     Dynamical RAM for                hpsi:     112.56 MB

     Dynamical RAM for                spsi:     112.56 MB

     Dynamical RAM for      wfcinit/wfcrot:      93.45 MB

     Dynamical RAM for           addusdens:     975.89 MB

     Estimated static dynamical RAM per process >     486.96 MB

     Estimated max dynamical RAM per process >       1.43 GB

     Estimated total dynamical RAM >       8.57 GB
     Generating pointlists ...
     new r_m :   0.0252 (alat units)  0.5862 (a.u.) for type    1
     new r_m :   0.0476 (alat units)  1.1095 (a.u.) for type    2
     new r_m :   0.0476 (alat units)  1.1095 (a.u.) for type    3

     Check: negative core charge=   -0.000002

     Initial potential from superposition of free atoms

     starting charge  208.80532, renormalised to  209.00000

     negative rho (up, down):  6.605E-05 1.165E-02


---------------------------------------------------------------------------------
Carrying out rVV10 run using the following parameters:
Nqs =      20    Nr_points =    1024   r_max =   100.000
b_value =  6.30000    beta =  0.00901
     q_mesh =  0.00010000  0.00030000  0.00058939  0.00100810
               0.00161396  0.00249058  0.00375900  0.00559430
               0.00824984  0.01209221  0.01765183  0.02569619
               0.03733578  0.05417739  0.07854596  0.11380545
               0.16482331  0.23864234  0.34545298  0.50000000

Gradients computed in Reciprocal space

---------------------------------------------------------------------------------


     Starting wfcs are  207 randomized atomic wfcs

     total cpu time spent up to now is       75.8 secs

     Self-consistent Calculation

     iteration #  1     ecut=    70.00 Ry     beta= 0.70
     Davidson diagonalization with overlap
     ethr =  1.00E-02,  avg # of iterations =  6.0

     negative rho (up, down):  1.577E-04 1.127E-02

     total cpu time spent up to now is      203.6 secs

     total energy              =    -731.10383527 Ry
     Harris-Foulkes estimate   =    -734.79361957 Ry
     estimated scf accuracy    <      10.69879269 Ry

     total magnetization       =     3.59 Bohr mag/cell
     absolute magnetization    =     4.54 Bohr mag/cell

     iteration #  2     ecut=    70.00 Ry     beta= 0.70
     Davidson diagonalization with overlap
     ethr =  5.12E-03,  avg # of iterations =  4.0

     negative rho (up, down):  1.921E-04 9.785E-03

     total cpu time spent up to now is      318.0 secs

     total energy              =    -731.25891014 Ry
     Harris-Foulkes estimate   =    -737.93356355 Ry
     estimated scf accuracy    <      14.35894655 Ry

     total magnetization       =     3.00 Bohr mag/cell
     absolute magnetization    =     3.12 Bohr mag/cell

     iteration #  3     ecut=    70.00 Ry     beta= 0.70
     Davidson diagonalization with overlap
     ethr =  5.12E-03,  avg # of iterations =  4.0

     negative rho (up, down):  2.439E-04 8.069E-03

     total cpu time spent up to now is      414.7 secs

     total energy              =    -731.32424046 Ry
     Harris-Foulkes estimate   =    -736.01487713 Ry
     estimated scf accuracy    <      16.18778639 Ry

     total magnetization       =     3.00 Bohr mag/cell
     absolute magnetization    =     3.52 Bohr mag/cell

     iteration #  4     ecut=    70.00 Ry     beta= 0.70
     Davidson diagonalization with overlap
     ethr =  5.12E-03,  avg # of iterations =  3.0

     negative rho (up, down):  2.747E-04 9.766E-03

     total cpu time spent up to now is      515.1 secs

     total energy              =    -734.03294045 Ry
     Harris-Foulkes estimate   =    -735.64221034 Ry
     estimated scf accuracy    <       8.42502557 Ry

     total magnetization       =     3.00 Bohr mag/cell
     absolute magnetization    =     3.12 Bohr mag/cell

     iteration #  5     ecut=    70.00 Ry     beta= 0.70
     Davidson diagonalization with overlap
     ethr =  4.03E-03,  avg # of iterations =  2.0

     negative rho (up, down):  3.547E-04 1.536E-02

     total cpu time spent up to now is      605.0 secs

     total energy              =    -734.66083473 Ry
     Harris-Foulkes estimate   =    -734.81023182 Ry
     estimated scf accuracy    <       0.48828538 Ry

     total magnetization       =     1.00 Bohr mag/cell
     absolute magnetization    =     1.31 Bohr mag/cell

     iteration #  6     ecut=    70.00 Ry     beta= 0.70
     Davidson diagonalization with overlap
     ethr =  2.34E-04,  avg # of iterations =  9.0

     negative rho (up, down):  4.884E-04 1.137E-02

     total cpu time spent up to now is      716.9 secs

     total energy              =    -734.73410674 Ry
     Harris-Foulkes estimate   =    -734.74896117 Ry
     estimated scf accuracy    <       0.05652833 Ry

     total magnetization       =     1.00 Bohr mag/cell
     absolute magnetization    =     1.23 Bohr mag/cell

     iteration #  7     ecut=    70.00 Ry     beta= 0.70
     Davidson diagonalization with overlap
     ethr =  2.70E-05,  avg # of iterations =  6.5

     negative rho (up, down):  6.723E-04 6.771E-03

     total cpu time spent up to now is      828.7 secs

     total energy              =    -734.73551775 Ry
     Harris-Foulkes estimate   =    -734.77023696 Ry
     estimated scf accuracy    <       0.14020179 Ry

     total magnetization       =     1.00 Bohr mag/cell
     absolute magnetization    =     1.18 Bohr mag/cell

     iteration #  8     ecut=    70.00 Ry     beta= 0.70
     Davidson diagonalization with overlap
     ethr =  2.70E-05,  avg # of iterations =  3.5

     negative rho (up, down):  7.199E-04 8.130E-03

     total cpu time spent up to now is      928.2 secs

     total energy              =    -734.74648469 Ry
     Harris-Foulkes estimate   =    -734.75153372 Ry
     estimated scf accuracy    <       0.02658618 Ry

     total magnetization       =     1.00 Bohr mag/cell
     absolute magnetization    =     1.15 Bohr mag/cell

     iteration #  9     ecut=    70.00 Ry     beta= 0.70
     Davidson diagonalization with overlap
     ethr =  1.27E-05,  avg # of iterations =  2.0

     negative rho (up, down):  7.114E-04 7.928E-03

     total cpu time spent up to now is     1018.2 secs

     total energy              =    -734.74866460 Ry
     Harris-Foulkes estimate   =    -734.75016295 Ry
     estimated scf accuracy    <       0.02408490 Ry

     total magnetization       =     1.00 Bohr mag/cell
     absolute magnetization    =     1.12 Bohr mag/cell

     iteration # 10     ecut=    70.00 Ry     beta= 0.70
     Davidson diagonalization with overlap
     ethr =  1.15E-05,  avg # of iterations =  1.0

     negative rho (up, down):  6.860E-04 5.724E-03

     total cpu time spent up to now is     1107.7 secs

     total energy              =    -734.74891378 Ry
     Harris-Foulkes estimate   =    -734.75078237 Ry
     estimated scf accuracy    <       0.03121465 Ry

     total magnetization       =     1.00 Bohr mag/cell
     absolute magnetization    =     1.12 Bohr mag/cell

     iteration # 11     ecut=    70.00 Ry     beta= 0.70
     Davidson diagonalization with overlap
     ethr =  1.15E-05,  avg # of iterations =  1.0

     negative rho (up, down):  6.690E-04 3.323E-03

     total cpu time spent up to now is     1197.1 secs

     total energy              =    -734.74942097 Ry
     Harris-Foulkes estimate   =    -734.74967715 Ry
     estimated scf accuracy    <       0.00383994 Ry

     total magnetization       =     1.00 Bohr mag/cell
     absolute magnetization    =     1.10 Bohr mag/cell

     iteration # 12     ecut=    70.00 Ry     beta= 0.70
     Davidson diagonalization with overlap
     ethr =  1.84E-06,  avg # of iterations =  7.5

     negative rho (up, down):  6.521E-04 1.769E-03

     total cpu time spent up to now is     1291.5 secs

     total energy              =    -734.74954919 Ry
     Harris-Foulkes estimate   =    -734.74963295 Ry
     estimated scf accuracy    <       0.00030464 Ry

     total magnetization       =     1.00 Bohr mag/cell
     absolute magnetization    =     1.09 Bohr mag/cell

     iteration # 13     ecut=    70.00 Ry     beta= 0.70
     Davidson diagonalization with overlap
     ethr =  1.46E-07,  avg # of iterations =  3.0

     negative rho (up, down):  6.533E-04 1.824E-03

     total cpu time spent up to now is     1390.1 secs

     total energy              =    -734.74960253 Ry
     Harris-Foulkes estimate   =    -734.74962833 Ry
     estimated scf accuracy    <       0.00059864 Ry

     total magnetization       =     1.00 Bohr mag/cell
     absolute magnetization    =     1.08 Bohr mag/cell

     iteration # 14     ecut=    70.00 Ry     beta= 0.70
     Davidson diagonalization with overlap
     ethr =  1.46E-07,  avg # of iterations =  1.0

     negative rho (up, down):  6.499E-04 1.695E-03

     total cpu time spent up to now is     1479.9 secs

     total energy              =    -734.74961047 Ry
     Harris-Foulkes estimate   =    -734.74962281 Ry
     estimated scf accuracy    <       0.00004676 Ry

     total magnetization       =     1.00 Bohr mag/cell
     absolute magnetization    =     1.08 Bohr mag/cell

     iteration # 15     ecut=    70.00 Ry     beta= 0.70
     Davidson diagonalization with overlap
     ethr =  2.24E-08,  avg # of iterations =  3.0

     negative rho (up, down):  6.467E-04 1.688E-03

     total cpu time spent up to now is     1574.0 secs

     total energy              =    -734.74962074 Ry
     Harris-Foulkes estimate   =    -734.74961961 Ry
     estimated scf accuracy    <       0.00002200 Ry

     total magnetization       =     1.00 Bohr mag/cell
     absolute magnetization    =     1.08 Bohr mag/cell

     iteration # 16     ecut=    70.00 Ry     beta= 0.70
     Davidson diagonalization with overlap
     ethr =  1.05E-08,  avg # of iterations =  2.0

     negative rho (up, down):  6.454E-04 1.698E-03

     total cpu time spent up to now is     1665.1 secs

     total energy              =    -734.74962185 Ry
     Harris-Foulkes estimate   =    -734.74962291 Ry
     estimated scf accuracy    <       0.00004734 Ry

     total magnetization       =     1.00 Bohr mag/cell
     absolute magnetization    =     1.07 Bohr mag/cell

     iteration # 17     ecut=    70.00 Ry     beta= 0.70
     Davidson diagonalization with overlap
     ethr =  1.05E-08,  avg # of iterations =  2.0

     negative rho (up, down):  6.452E-04 1.706E-03

     total cpu time spent up to now is     1755.2 secs

     total energy              =    -734.74962280 Ry
     Harris-Foulkes estimate   =    -734.74962291 Ry
     estimated scf accuracy    <       0.00000846 Ry

     total magnetization       =     1.00 Bohr mag/cell
     absolute magnetization    =     1.07 Bohr mag/cell

     iteration # 18     ecut=    70.00 Ry     beta= 0.70
     Davidson diagonalization with overlap
     ethr =  4.05E-09,  avg # of iterations =  2.0

     negative rho (up, down):  6.456E-04 1.691E-03

     Magnetic moment per site:
     atom:    1    charge:    0.2124    magn:   -0.0000    constr:    0.0000
     atom:    2    charge:    0.2124    magn:   -0.0000    constr:    0.0000
     atom:    3    charge:    1.7157    magn:    0.0015    constr:    0.0000
     atom:    4    charge:    1.7153    magn:    0.0016    constr:    0.0000
     atom:    5    charge:    1.7170    magn:   -0.0002    constr:    0.0000
     atom:    6    charge:    1.7146    magn:    0.0002    constr:    0.0000
     atom:    7    charge:    1.7170    magn:   -0.0001    constr:    0.0000
     atom:    8    charge:    1.7154    magn:    0.0023    constr:    0.0000
     atom:    9    charge:    1.7159    magn:    0.0020    constr:    0.0000
     atom:   10    charge:    1.7170    magn:   -0.0010    constr:    0.0000
     atom:   11    charge:    1.7160    magn:    0.0008    constr:    0.0000
     atom:   12    charge:    1.7171    magn:   -0.0011    constr:    0.0000
     atom:   13    charge:    1.7160    magn:    0.0006    constr:    0.0000
     atom:   14    charge:    1.7169    magn:   -0.0007    constr:    0.0000
     atom:   15    charge:    1.7128    magn:    0.0057    constr:    0.0000
     atom:   16    charge:    1.7111    magn:    0.0147    constr:    0.0000
     atom:   17    charge:    1.7214    magn:    0.0024    constr:    0.0000
     atom:   18    charge:    1.7110    magn:    0.0156    constr:    0.0000
     atom:   19    charge:    1.7133    magn:    0.0086    constr:    0.0000
     atom:   20    charge:    1.7169    magn:   -0.0011    constr:    0.0000
     atom:   21    charge:    1.7160    magn:    0.0007    constr:    0.0000
     atom:   22    charge:    1.7171    magn:   -0.0011    constr:    0.0000
     atom:   23    charge:    1.7158    magn:    0.0015    constr:    0.0000
     atom:   24    charge:    1.7153    magn:    0.0016    constr:    0.0000
     atom:   25    charge:    1.7128    magn:    0.0057    constr:    0.0000
     atom:   26    charge:    1.7111    magn:    0.0146    constr:    0.0000
     atom:   27    charge:    1.8152    magn:    0.0615    constr:    0.0000
     atom:   28    charge:    7.0298    magn:    0.1545    constr:    0.0000
     atom:   29    charge:    1.8203    magn:    0.0875    constr:    0.0000
     atom:   30    charge:    1.7100    magn:    0.0099    constr:    0.0000
     atom:   31    charge:    1.7129    magn:    0.0071    constr:    0.0000
     atom:   32    charge:    1.7152    magn:    0.0014    constr:    0.0000
     atom:   33    charge:    1.7170    magn:   -0.0001    constr:    0.0000
     atom:   34    charge:    1.7152    magn:    0.0001    constr:    0.0000
     atom:   35    charge:    1.7170    magn:   -0.0002    constr:    0.0000
     atom:   36    charge:    1.7146    magn:    0.0002    constr:    0.0000
     atom:   37    charge:    1.7214    magn:    0.0024    constr:    0.0000
     atom:   38    charge:    1.7110    magn:    0.0155    constr:    0.0000
     atom:   39    charge:    1.8204    magn:    0.0879    constr:    0.0000
     atom:   40    charge:    1.7100    magn:    0.0099    constr:    0.0000
     atom:   41    charge:    1.7216    magn:    0.0039    constr:    0.0000
     atom:   42    charge:    1.7146    magn:   -0.0000    constr:    0.0000
     atom:   43    charge:    1.7170    magn:   -0.0001    constr:    0.0000
     atom:   44    charge:    1.7152    magn:    0.0001    constr:    0.0000
     atom:   45    charge:    1.7212    magn:   -0.0009    constr:    0.0000
     atom:   46    charge:    1.7152    magn:    0.0002    constr:    0.0000
     atom:   47    charge:    1.7170    magn:   -0.0001    constr:    0.0000
     atom:   48    charge:    1.7154    magn:    0.0023    constr:    0.0000
     atom:   49    charge:    1.7133    magn:    0.0086    constr:    0.0000
     atom:   50    charge:    1.7169    magn:   -0.0011    constr:    0.0000
     atom:   51    charge:    1.7129    magn:    0.0071    constr:    0.0000
     atom:   52    charge:    1.7152    magn:    0.0014    constr:    0.0000

     total cpu time spent up to now is     1845.1 secs

     End of self-consistent calculation

 ------ SPIN UP ------------


          k = 0.0000 0.0000 0.0000 ( 87777 PWs)   bands (ev):

   -19.8348 -18.9978 -18.9871 -18.9004 -18.8957 -18.8362 -18.7565 -17.1617
   -17.1614 -17.1267 -17.0839 -17.0794 -16.8026 -16.3236 -16.3189 -16.1786
   -16.1744 -16.1543 -15.7615 -14.4173 -14.4108 -14.1231 -14.0292 -14.0282
   -13.5687 -13.1607 -13.1598 -13.0742 -12.9319 -12.9285 -12.6250 -12.3048
   -12.3015 -11.7082 -11.6026 -11.6015 -11.1763 -10.9267 -10.9208  -9.5162
    -9.3588  -9.3580  -9.2372  -9.2275  -9.2274  -9.2176  -9.0948  -9.0763
    -9.0537  -9.0505  -8.9504  -8.7104  -8.7078  -7.9983  -7.8897  -7.8402
    -7.6582  -7.6523  -7.5291  -7.5272  -7.3213  -6.8600  -6.8392  -6.8349
    -6.8098  -6.7753  -6.7135  -6.7063  -6.6139  -6.6115  -6.5690  -6.5629
    -6.5603  -6.5157  -6.3925  -6.3857  -6.3766  -5.6070  -5.6062  -5.0226
    -4.9509  -4.8797  -4.8776  -4.8532  -4.7582  -4.7224  -4.7207  -4.5376
    -4.5349  -4.4242  -3.8500  -3.8458  -3.8126  -3.8103  -3.7771  -3.6370
    -3.6330  -3.3510  -1.8785  -1.8221  -1.8216  -1.7286  -1.7282  -1.1873
    -0.8258  -0.8219   0.9158   0.9515   0.9516   1.0952   1.0976   1.5155
     2.4899   2.7911   2.7982   2.8448   2.9158   2.9305   3.3967   3.4302
     3.6047   3.7305   3.7311   3.7540   3.9207   4.2464

     occupation numbers 
     1.0000   1.0000   1.0000   1.0000   1.0000   1.0000   1.0000   1.0000
     1.0000   1.0000   1.0000   1.0000   1.0000   1.0000   1.0000   1.0000
     1.0000   1.0000   1.0000   1.0000   1.0000   1.0000   1.0000   1.0000
     1.0000   1.0000   1.0000   1.0000   1.0000   1.0000   1.0000   1.0000
     1.0000   1.0000   1.0000   1.0000   1.0000   1.0000   1.0000   1.0000
     1.0000   1.0000   1.0000   1.0000   1.0000   1.0000   1.0000   1.0000
     1.0000   1.0000   1.0000   1.0000   1.0000   1.0000   1.0000   1.0000
     1.0000   1.0000   1.0000   1.0000   1.0000   1.0000   1.0000   1.0000
     1.0000   1.0000   1.0000   1.0000   1.0000   1.0000   1.0000   1.0000
     1.0000   1.0000   1.0000   1.0000   1.0000   1.0000   1.0000   1.0000
     1.0000   1.0000   1.0000   1.0000   1.0000   1.0000   1.0000   1.0000
     1.0000   1.0000   1.0000   1.0000   1.0000   1.0000   1.0000   1.0000
     1.0000   1.0000   1.0000   1.0000   1.0000   1.0000   1.0000   1.0000
     0.6049   0.3951   0.0000   0.0000   0.0000   0.0000   0.0000   0.0000
     0.0000   0.0000   0.0000   0.0000   0.0000   0.0000   0.0000   0.0000
     0.0000   0.0000   0.0000   0.0000   0.0000   0.0000

 ------ SPIN DOWN ----------


          k = 0.0000 0.0000 0.0000 ( 87777 PWs)   bands (ev):

   -19.8100 -18.9679 -18.9527 -18.8937 -18.8886 -18.8330 -18.6818 -17.1236
   -17.1228 -17.1104 -17.0649 -17.0537 -16.7695 -16.2873 -16.2810 -16.1597
   -16.1499 -16.1475 -15.6864 -14.3255 -14.3247 -14.0989 -14.0210 -14.0197
   -13.5269 -13.1354 -13.1346 -13.0613 -12.8990 -12.8883 -12.5611 -12.1969
   -12.1899 -11.6885 -11.5712 -11.5637 -11.0729 -10.7954 -10.7897  -9.4755
    -9.3402  -9.3375  -9.2296  -9.2188  -9.2187  -9.2056  -8.9971  -8.9952
    -8.9355  -8.8928  -8.8249  -8.6719  -8.6625  -7.9839  -7.8653  -7.8179
    -7.6083  -7.6043  -7.5131  -7.5082  -7.2987  -6.8384  -6.8336  -6.8166
    -6.7745  -6.7691  -6.7009  -6.6922  -6.5917  -6.5899  -6.5618  -6.5582
    -6.5563  -6.5095  -6.3534  -6.3510  -6.3417  -5.5819  -5.5764  -5.0036
    -4.9409  -4.8596  -4.8575  -4.7535  -4.7213  -4.7196  -4.6546  -4.5283
    -4.5246  -4.4032  -3.8460  -3.8416  -3.7869  -3.7854  -3.7781  -3.6194
    -3.6142  -3.3111  -1.8749  -1.8194  -1.8190  -1.7085  -1.7053  -1.1495
    -0.4741  -0.3760   0.9187   0.9550   0.9554   1.1177   1.1210   1.5288
     2.4901   2.7940   2.7997   2.8454   2.9439   2.9546   3.4023   3.4402
     3.6062   3.7297   3.7304   3.7529   3.9280   4.2457

     occupation numbers 
     1.0000   1.0000   1.0000   1.0000   1.0000   1.0000   1.0000   1.0000
     1.0000   1.0000   1.0000   1.0000   1.0000   1.0000   1.0000   1.0000
     1.0000   1.0000   1.0000   1.0000   1.0000   1.0000   1.0000   1.0000
     1.0000   1.0000   1.0000   1.0000   1.0000   1.0000   1.0000   1.0000
     1.0000   1.0000   1.0000   1.0000   1.0000   1.0000   1.0000   1.0000
     1.0000   1.0000   1.0000   1.0000   1.0000   1.0000   1.0000   1.0000
     1.0000   1.0000   1.0000   1.0000   1.0000   1.0000   1.0000   1.0000
     1.0000   1.0000   1.0000   1.0000   1.0000   1.0000   1.0000   1.0000
     1.0000   1.0000   1.0000   1.0000   1.0000   1.0000   1.0000   1.0000
     1.0000   1.0000   1.0000   1.0000   1.0000   1.0000   1.0000   1.0000
     1.0000   1.0000   1.0000   1.0000   1.0000   1.0000   1.0000   1.0000
     1.0000   1.0000   1.0000   1.0000   1.0000   1.0000   1.0000   1.0000
     1.0000   1.0000   1.0000   1.0000   1.0000   1.0000   1.0000   1.0000
     0.0000   0.0000   0.0000   0.0000   0.0000   0.0000   0.0000   0.0000
     0.0000   0.0000   0.0000   0.0000   0.0000   0.0000   0.0000   0.0000
     0.0000   0.0000   0.0000   0.0000   0.0000   0.0000

     the Fermi energy is    -0.8220 ev

!    total energy              =    -734.74962283 Ry
     Harris-Foulkes estimate   =    -734.74962319 Ry
     estimated scf accuracy    <       0.00000096 Ry

     The total energy is the sum of the following terms:

     one-electron contribution =   -2500.95111033 Ry
     hartree contribution      =    1306.27590225 Ry
     xc contribution           =    -275.95892158 Ry
     ewald contribution        =     735.88482000 Ry
     smearing contrib. (-TS)   =      -0.00031317 Ry

     total magnetization       =     1.00 Bohr mag/cell
     absolute magnetization    =     1.07 Bohr mag/cell

     convergence has been achieved in  18 iterations

     Writing output data file cobre-top-distance-2.6.save/

     init_run     :     73.19s CPU     74.68s WALL (       1 calls)
     electrons    :   1738.70s CPU   1769.39s WALL (       1 calls)

     Called by init_run:
     wfcinit      :     41.32s CPU     41.58s WALL (       1 calls)
     wfcinit:atom :      0.05s CPU      0.08s WALL (       2 calls)
     wfcinit:wfcr :     40.92s CPU     41.08s WALL (       2 calls)
     potinit      :     13.39s CPU     13.84s WALL (       1 calls)
     hinit0       :     10.20s CPU     10.20s WALL (       1 calls)

     Called by electrons:
     c_bands      :   1104.78s CPU   1110.51s WALL (      18 calls)
     sum_band     :    364.25s CPU    374.65s WALL (      18 calls)
     v_of_rho     :    135.95s CPU    141.69s WALL (      19 calls)
     v_h          :      1.42s CPU      1.45s WALL (      19 calls)
     v_xc         :    134.53s CPU    140.24s WALL (      19 calls)
     newd         :    136.10s CPU    145.72s WALL (      19 calls)
     mix_rho      :      7.53s CPU      7.66s WALL (      18 calls)

     Called by c_bands:
     init_us_2    :      3.26s CPU      3.31s WALL (      74 calls)
     cegterg      :   1096.21s CPU   1101.89s WALL (      36 calls)

     Called by sum_band:
     sum_band:bec :      0.03s CPU      0.03s WALL (      36 calls)
     addusdens    :    222.00s CPU    231.68s WALL (      18 calls)

     Called by *egterg:
     h_psi        :    588.47s CPU    592.37s WALL (     163 calls)
     s_psi        :    198.86s CPU    198.99s WALL (     163 calls)
     g_psi        :      0.62s CPU      0.63s WALL (     125 calls)
     cdiaghg      :     11.11s CPU     11.12s WALL (     161 calls)
     cegterg:over :    134.07s CPU    134.12s WALL (     125 calls)
     cegterg:upda :     79.28s CPU     79.83s WALL (     125 calls)
     cegterg:last :     58.01s CPU     58.03s WALL (      36 calls)

     Called by h_psi:
     h_psi:pot    :    587.77s CPU    590.98s WALL (     163 calls)
     h_psi:calbec :    198.80s CPU    198.91s WALL (     163 calls)
     vloc_psi     :    190.21s CPU    193.24s WALL (     163 calls)
     add_vuspsi   :    198.76s CPU    198.83s WALL (     163 calls)

     General routines
     calbec       :    283.67s CPU    283.81s WALL (     199 calls)
     fft          :     82.57s CPU     84.90s WALL (    1419 calls)
     ffts         :      1.35s CPU      1.39s WALL (      74 calls)
     fftw         :    203.18s CPU    206.47s WALL (   25784 calls)
     interpolate  :      3.16s CPU      3.29s WALL (      38 calls)

     Parallel routines
     fft_scatt_xy :     47.98s CPU     48.58s WALL (   27277 calls)
     fft_scatt_yz :    105.61s CPU    109.79s WALL (   27277 calls)

     PWSCF        :  30m13.19s CPU  30m45.72s WALL


   This run was terminated on:   0:23:28   7Sep2022            

=------------------------------------------------------------------------------=
   JOB DONE.
=------------------------------------------------------------------------------=
