
     Program PWSCF v.6.4.1 starts on  6Jan2023 at  8:16:17 

     This program is part of the open-source Quantum ESPRESSO suite
     for quantum simulation of materials; please cite
         "P. Giannozzi et al., J. Phys.:Condens. Matter 21 395502 (2009);
         "P. Giannozzi et al., J. Phys.:Condens. Matter 29 465901 (2017);
          URL http://www.quantum-espresso.org", 
     in publications or presentations arising from this work. More details at
     http://www.quantum-espresso.org/quote

     Parallel version (MPI), running on     6 processors

     MPI processes distributed on     1 nodes
     R & G space division:  proc/nbgrp/npool/nimage =       6
     Reading input from distance-2.6.in

     Current dimensions of program PWSCF are:
     Max number of different atomic species (ntypx) = 10
     Max number of k-points (npk) =  40000
     Max angular momentum in pseudopotentials (lmaxx) =  3

     IMPORTANT: XC functional enforced from input :
     Exchange-correlation      = RVV10 ( 1  4 13  4 3 0)
     Any further DFT definition will be discarded
     Please, verify this is what you really want

               file H.pbe-rrkjus.UPF: wavefunction(s)  1S renormalized

     Subspace diagonalization in iterative solution of the eigenvalue problem:
     a serial algorithm will be used


     Parallelization info
     --------------------
     sticks:   dense  smooth     PW     G-vecs:    dense   smooth      PW
     Min        3051    1746    432               270999   117096   14629
     Max        3053    1747    437               271001   117099   14630
     Sum       18313   10477   2611              1626001   702581   87777



     bravais-lattice index     =            4
     lattice parameter (alat)  =      23.2937  a.u.
     unit-cell volume          =    8879.8548 (a.u.)^3
     number of atoms/cell      =           52
     number of atomic types    =            3
     number of electrons       =       216.00
     number of Kohn-Sham states=          130
     kinetic-energy cutoff     =      70.0000  Ry
     charge density cutoff     =     490.0000  Ry
     convergence threshold     =      1.0E-06
     mixing beta               =       0.7000
     number of iterations used =            8  plain     mixing
     Exchange-correlation      = RVV10 ( 1  4 13  4 3 0)

     celldm(1)=  23.293684  celldm(2)=   0.000000  celldm(3)=   0.811261
     celldm(4)=   0.000000  celldm(5)=   0.000000  celldm(6)=   0.000000

     crystal axes: (cart. coord. in units of alat)
               a(1) = (   1.000000   0.000000   0.000000 )  
               a(2) = (  -0.500000   0.866025   0.000000 )  
               a(3) = (   0.000000   0.000000   0.811261 )  

     reciprocal axes: (cart. coord. in units 2 pi/alat)
               b(1) = (  1.000000  0.577350 -0.000000 )  
               b(2) = (  0.000000  1.154701  0.000000 )  
               b(3) = (  0.000000 -0.000000  1.232649 )  


     PseudoPot. # 1 for H  read from file:
     /home/cristian/Escritorio/Proyecto_Grafeno/pseudopotenciales/H.pbe-rrkjus.UPF
     MD5 check sum: 7cc9d459525c9a0585f487a71c3c9563
     Pseudo is Ultrasoft, Zval =  1.0
     Generated by new atomic code, or converted to UPF format
     Using radial grid of 1061 points,  2 beta functions with: 
                l(1) =   0
                l(2) =   0
     Q(r) pseudized with 0 coefficients 


     PseudoPot. # 2 for C  read from file:
     /home/cristian/Escritorio/Proyecto_Grafeno/pseudopotenciales/C.pbe-n-rrkjus_psl.1.0.0.UPF
     MD5 check sum: 1fdd950c42eb37d8afe3dd2f8d12311e
     Pseudo is Ultrasoft + core correction, Zval =  4.0
     Generated using "atomic" code by A. Dal Corso v.6.3MaX
     Using radial grid of 1073 points,  4 beta functions with: 
                l(1) =   0
                l(2) =   0
                l(3) =   1
                l(4) =   1
     Q(r) pseudized with 0 coefficients 


     PseudoPot. # 3 for Ni read from file:
     /home/cristian/Escritorio/Proyecto_Grafeno/pseudopotenciales/Ni.pbe-spn-rrkjus_psl.1.0.0.UPF
     MD5 check sum: 8b3fc9aac6dafe35f580d41bb18c3945
     Pseudo is Ultrasoft + core correction, Zval = 18.0
     Generated using "atomic" code by A. Dal Corso v.6.3
     Using radial grid of 1195 points,  6 beta functions with: 
                l(1) =   0
                l(2) =   0
                l(3) =   1
                l(4) =   1
                l(5) =   2
                l(6) =   2
     Q(r) pseudized with 0 coefficients 


     vdW kernel table read from file rVV10_kernel_table
     MD5 check sum: b8e2538accc0c0b3206b45ba4daaba6c

     atomic species   valence    mass     pseudopotential
        H              1.00     1.00794     H ( 1.00)
        C              4.00    12.01070     C ( 1.00)
        Ni            18.00    58.69340     Ni( 1.00)

     Starting magnetic structure 
     atomic species   magnetization
        H            0.500
        C            0.300
        Ni           0.800

     No symmetry found


                                    s                        frac. trans.

      isym =  1     identity                                     

 cryst.   s( 1) = (     1          0          0      )
                  (     0          1          0      )
                  (     0          0          1      )

 cart.    s( 1) = (  1.0000000  0.0000000  0.0000000 )
                  (  0.0000000  1.0000000  0.0000000 )
                  (  0.0000000  0.0000000  1.0000000 )


     point group C_1 (1)    
     there are  1 classes
     the character table:

       E    
A      1.00

     the symmetry operations in each class and the name of the first element:

     E        1
          identity                                               

   Cartesian axes

     site n.     atom                  positions (alat units)
         1           H   tau(   1) = (   0.2361603   0.4618802   0.2109279  )
         2           H   tau(   2) = (   0.2971730   0.4618802   0.2109279  )
         3           C   tau(   3) = (   0.0000000   0.0000000   0.0000000  )
         4           C   tau(   4) = (   0.0000000   0.1154701   0.0000000  )
         5           C   tau(   5) = (  -0.1000000   0.1732051   0.0000000  )
         6           C   tau(   6) = (  -0.1000000   0.2886751   0.0000000  )
         7           C   tau(   7) = (  -0.2000000   0.3464102   0.0000000  )
         8           C   tau(   8) = (  -0.2000000   0.4618802   0.0000000  )
         9           C   tau(   9) = (  -0.3000000   0.5196152   0.0000000  )
        10           C   tau(  10) = (  -0.3000000   0.6350853   0.0000000  )
        11           C   tau(  11) = (  -0.4000000   0.6928203   0.0000000  )
        12           C   tau(  12) = (  -0.4000000   0.8082904   0.0000000  )
        13           C   tau(  13) = (   0.2000000   0.0000000   0.0000000  )
        14           C   tau(  14) = (   0.2000000   0.1154701   0.0000000  )
        15           C   tau(  15) = (   0.1000000   0.1732051   0.0000000  )
        16           C   tau(  16) = (   0.1000000   0.2886751   0.0000000  )
        17           C   tau(  17) = (   0.0000000   0.3464102   0.0000000  )
        18           C   tau(  18) = (   0.0000000   0.4618802   0.0000000  )
        19           C   tau(  19) = (  -0.1000000   0.5196152   0.0000000  )
        20           C   tau(  20) = (  -0.1000000   0.6350853   0.0000000  )
        21           C   tau(  21) = (  -0.2000000   0.6928203   0.0000000  )
        22           C   tau(  22) = (  -0.2000000   0.8082904   0.0000000  )
        23           C   tau(  23) = (   0.4000000   0.0000000   0.0000000  )
        24           C   tau(  24) = (   0.4000000   0.1154701   0.0000000  )
        25           C   tau(  25) = (   0.3000000   0.1732051   0.0000000  )
        26           C   tau(  26) = (   0.3000000   0.2886751   0.0000000  )
        27           C   tau(  27) = (   0.2000000   0.3464102   0.0000000  )
        28           Ni  tau(  28) = (   0.2000000   0.4618802   0.0000000  )
        29           C   tau(  29) = (   0.1000000   0.5196152   0.0000000  )
        30           C   tau(  30) = (   0.1000000   0.6350853   0.0000000  )
        31           C   tau(  31) = (   0.0000000   0.6928203   0.0000000  )
        32           C   tau(  32) = (   0.0000000   0.8082904   0.0000000  )
        33           C   tau(  33) = (   0.6000000   0.0000000   0.0000000  )
        34           C   tau(  34) = (   0.6000000   0.1154701   0.0000000  )
        35           C   tau(  35) = (   0.5000000   0.1732051   0.0000000  )
        36           C   tau(  36) = (   0.5000000   0.2886751   0.0000000  )
        37           C   tau(  37) = (   0.4000000   0.3464102   0.0000000  )
        38           C   tau(  38) = (   0.4000000   0.4618802   0.0000000  )
        39           C   tau(  39) = (   0.3000000   0.5196152   0.0000000  )
        40           C   tau(  40) = (   0.3000000   0.6350853   0.0000000  )
        41           C   tau(  41) = (   0.2000000   0.6928203   0.0000000  )
        42           C   tau(  42) = (   0.2000000   0.8082904   0.0000000  )
        43           C   tau(  43) = (   0.8000000   0.0000000   0.0000000  )
        44           C   tau(  44) = (   0.8000000   0.1154701   0.0000000  )
        45           C   tau(  45) = (   0.7000000   0.1732051   0.0000000  )
        46           C   tau(  46) = (   0.7000000   0.2886751   0.0000000  )
        47           C   tau(  47) = (   0.6000000   0.3464102   0.0000000  )
        48           C   tau(  48) = (   0.6000000   0.4618802   0.0000000  )
        49           C   tau(  49) = (   0.5000000   0.5196152   0.0000000  )
        50           C   tau(  50) = (   0.5000000   0.6350853   0.0000000  )
        51           C   tau(  51) = (   0.4000000   0.6928203   0.0000000  )
        52           C   tau(  52) = (   0.4000000   0.8082904   0.0000000  )

   Crystallographic axes

     site n.     atom                  positions (cryst. coord.)
         1           H   tau(   1) = (  0.5028270  0.5333333  0.2600000  )
         2           H   tau(   2) = (  0.5638397  0.5333333  0.2600000  )
         3           C   tau(   3) = (  0.0000000  0.0000000  0.0000000  )
         4           C   tau(   4) = (  0.0666667  0.1333333  0.0000000  )
         5           C   tau(   5) = (  0.0000000  0.2000000  0.0000000  )
         6           C   tau(   6) = (  0.0666667  0.3333333  0.0000000  )
         7           C   tau(   7) = (  0.0000000  0.4000000  0.0000000  )
         8           C   tau(   8) = (  0.0666667  0.5333333  0.0000000  )
         9           C   tau(   9) = (  0.0000000  0.6000000  0.0000000  )
        10           C   tau(  10) = (  0.0666667  0.7333333  0.0000000  )
        11           C   tau(  11) = (  0.0000000  0.8000000  0.0000000  )
        12           C   tau(  12) = (  0.0666667  0.9333333  0.0000000  )
        13           C   tau(  13) = (  0.2000000  0.0000000  0.0000000  )
        14           C   tau(  14) = (  0.2666667  0.1333333  0.0000000  )
        15           C   tau(  15) = (  0.2000000  0.2000000  0.0000000  )
        16           C   tau(  16) = (  0.2666667  0.3333333  0.0000000  )
        17           C   tau(  17) = (  0.2000000  0.4000000  0.0000000  )
        18           C   tau(  18) = (  0.2666667  0.5333333  0.0000000  )
        19           C   tau(  19) = (  0.2000000  0.6000000  0.0000000  )
        20           C   tau(  20) = (  0.2666667  0.7333333  0.0000000  )
        21           C   tau(  21) = (  0.2000000  0.8000000  0.0000000  )
        22           C   tau(  22) = (  0.2666667  0.9333333  0.0000000  )
        23           C   tau(  23) = (  0.4000000  0.0000000  0.0000000  )
        24           C   tau(  24) = (  0.4666667  0.1333333  0.0000000  )
        25           C   tau(  25) = (  0.4000000  0.2000000  0.0000000  )
        26           C   tau(  26) = (  0.4666667  0.3333333  0.0000000  )
        27           C   tau(  27) = (  0.4000000  0.4000000  0.0000000  )
        28           Ni  tau(  28) = (  0.4666667  0.5333333  0.0000000  )
        29           C   tau(  29) = (  0.4000000  0.6000000  0.0000000  )
        30           C   tau(  30) = (  0.4666667  0.7333333  0.0000000  )
        31           C   tau(  31) = (  0.4000000  0.8000000  0.0000000  )
        32           C   tau(  32) = (  0.4666667  0.9333333  0.0000000  )
        33           C   tau(  33) = (  0.6000000  0.0000000  0.0000000  )
        34           C   tau(  34) = (  0.6666667  0.1333333  0.0000000  )
        35           C   tau(  35) = (  0.6000000  0.2000000  0.0000000  )
        36           C   tau(  36) = (  0.6666667  0.3333333  0.0000000  )
        37           C   tau(  37) = (  0.6000000  0.4000000  0.0000000  )
        38           C   tau(  38) = (  0.6666667  0.5333333  0.0000000  )
        39           C   tau(  39) = (  0.6000000  0.6000000  0.0000000  )
        40           C   tau(  40) = (  0.6666667  0.7333333  0.0000000  )
        41           C   tau(  41) = (  0.6000000  0.8000000  0.0000000  )
        42           C   tau(  42) = (  0.6666667  0.9333333  0.0000000  )
        43           C   tau(  43) = (  0.8000000  0.0000000  0.0000000  )
        44           C   tau(  44) = (  0.8666667  0.1333333  0.0000000  )
        45           C   tau(  45) = (  0.8000000  0.2000000  0.0000000  )
        46           C   tau(  46) = (  0.8666667  0.3333333  0.0000000  )
        47           C   tau(  47) = (  0.8000000  0.4000000  0.0000000  )
        48           C   tau(  48) = (  0.8666667  0.5333333  0.0000000  )
        49           C   tau(  49) = (  0.8000000  0.6000000  0.0000000  )
        50           C   tau(  50) = (  0.8666667  0.7333333  0.0000000  )
        51           C   tau(  51) = (  0.8000000  0.8000000  0.0000000  )
        52           C   tau(  52) = (  0.8666667  0.9333333  0.0000000  )

     number of k points=     1  Marzari-Vanderbilt smearing, width (Ry)=  0.0010
                       cart. coord. in units 2pi/alat
        k(    1) = (   0.0000000   0.0000000   0.0000000), wk =   1.0000000

                       cryst. coord.
        k(    1) = (   0.0000000   0.0000000   0.0000000), wk =   1.0000000

     Dense  grid:  1626001 G-vectors     FFT dimensions: ( 180, 180, 135)

     Smooth grid:   702581 G-vectors     FFT dimensions: ( 125, 125, 108)

     Dynamical RAM for                 wfc:      29.03 MB

     Dynamical RAM for     wfc (w. buffer):      87.10 MB

     Dynamical RAM for           str. fact:      12.41 MB

     Dynamical RAM for           local pot:       0.00 MB

     Dynamical RAM for          nlocal pot:      92.46 MB

     Dynamical RAM for                qrad:      19.73 MB

     Dynamical RAM for          rho,v,vnew:      58.92 MB

     Dynamical RAM for               rhoin:      19.64 MB

     Dynamical RAM for            rho*nmix:     132.32 MB

     Dynamical RAM for           G-vectors:      16.40 MB

     Dynamical RAM for          h,s,v(r/c):      12.38 MB

     Dynamical RAM for          <psi|beta>:       0.82 MB

     Dynamical RAM for                 psi:     116.14 MB

     Dynamical RAM for                hpsi:     116.14 MB

     Dynamical RAM for                spsi:     116.14 MB

     Dynamical RAM for      wfcinit/wfcrot:      93.90 MB

     Dynamical RAM for           addusdens:     975.89 MB

     Estimated static dynamical RAM per process >     489.64 MB

     Estimated max dynamical RAM per process >       1.43 GB

     Estimated total dynamical RAM >       8.59 GB
     Generating pointlists ...
     new r_m :   0.0252 (alat units)  0.5862 (a.u.) for type    1
     new r_m :   0.0476 (alat units)  1.1095 (a.u.) for type    2
     new r_m :   0.0476 (alat units)  1.1095 (a.u.) for type    3

     Check: negative core charge=   -0.000002

     Initial potential from superposition of free atoms

     starting charge  215.80530, renormalised to  216.00000

     negative rho (up, down):  1.522E-04 1.647E-02


---------------------------------------------------------------------------------
Carrying out rVV10 run using the following parameters:
Nqs =      20    Nr_points =    1024   r_max =   100.000
b_value =  6.30000    beta =  0.00901
     q_mesh =  0.00010000  0.00030000  0.00058939  0.00100810
               0.00161396  0.00249058  0.00375900  0.00559430
               0.00824984  0.01209221  0.01765183  0.02569619
               0.03733578  0.05417739  0.07854596  0.11380545
               0.16482331  0.23864234  0.34545298  0.50000000

Gradients computed in Reciprocal space

---------------------------------------------------------------------------------


     Starting wfcs are  208 randomized atomic wfcs

     total cpu time spent up to now is       68.7 secs

     Self-consistent Calculation

     iteration #  1     ecut=    70.00 Ry     beta= 0.70
     Davidson diagonalization with overlap
     ethr =  1.00E-02,  avg # of iterations =  6.5

     negative rho (up, down):  2.955E-04 1.442E-02

     total cpu time spent up to now is      185.1 secs

     total energy              =    -946.86633415 Ry
     Harris-Foulkes estimate   =    -949.68224417 Ry
     estimated scf accuracy    <      13.96464718 Ry

     total magnetization       =     6.00 Bohr mag/cell
     absolute magnetization    =     6.75 Bohr mag/cell

     iteration #  2     ecut=    70.00 Ry     beta= 0.70
     Davidson diagonalization with overlap
     ethr =  6.47E-03,  avg # of iterations =  3.0

     negative rho (up, down):  7.992E-03 2.644E-01

     total cpu time spent up to now is      288.9 secs

     total energy              =    -948.92840633 Ry
     Harris-Foulkes estimate   =    -956.58042075 Ry
     estimated scf accuracy    <      34.25773820 Ry

     total magnetization       =     4.00 Bohr mag/cell
     absolute magnetization    =     7.48 Bohr mag/cell

     iteration #  3     ecut=    70.00 Ry     beta= 0.70
     Davidson diagonalization with overlap
     ethr =  6.47E-03,  avg # of iterations =  4.0

     negative rho (up, down):  6.756E-02 5.315E-01

     total cpu time spent up to now is      390.2 secs

     total energy              =    -952.59397664 Ry
     Harris-Foulkes estimate   =    -961.24105782 Ry
     estimated scf accuracy    <     538.47000979 Ry

     total magnetization       =     0.28 Bohr mag/cell
     absolute magnetization    =    33.94 Bohr mag/cell

     iteration #  4     ecut=    70.00 Ry     beta= 0.70
     Davidson diagonalization with overlap
     ethr =  6.47E-03,  avg # of iterations =  4.0

     negative rho (up, down):  4.477E-02 5.118E-01

     total cpu time spent up to now is      480.9 secs

     total energy              =    -944.33101287 Ry
     Harris-Foulkes estimate   =    -954.66515234 Ry
     estimated scf accuracy    <     163.92479472 Ry

     total magnetization       =     1.85 Bohr mag/cell
     absolute magnetization    =    20.08 Bohr mag/cell

     iteration #  5     ecut=    70.00 Ry     beta= 0.70
     Davidson diagonalization with overlap
     ethr =  6.47E-03,  avg # of iterations =  4.0

     negative rho (up, down):  6.025E-02 3.295E-01

     total cpu time spent up to now is      590.3 secs

     total energy              =    -955.29230956 Ry
     Harris-Foulkes estimate   =    -953.40282105 Ry
     estimated scf accuracy    <     110.21606116 Ry

     total magnetization       =     2.00 Bohr mag/cell
     absolute magnetization    =    17.43 Bohr mag/cell

     iteration #  6     ecut=    70.00 Ry     beta= 0.70
     Davidson diagonalization with overlap
     ethr =  6.47E-03,  avg # of iterations =  3.0

     negative rho (up, down):  6.938E-02 4.881E-01

     total cpu time spent up to now is      678.2 secs

     total energy              =    -946.02605463 Ry
     Harris-Foulkes estimate   =    -957.78738099 Ry
     estimated scf accuracy    <     364.46343955 Ry

     total magnetization       =     2.00 Bohr mag/cell
     absolute magnetization    =    30.17 Bohr mag/cell

     iteration #  7     ecut=    70.00 Ry     beta= 0.70
     Davidson diagonalization with overlap
     ethr =  6.47E-03,  avg # of iterations =  2.5

     negative rho (up, down):  4.652E-02 4.133E-01

     total cpu time spent up to now is      774.6 secs

     total energy              =    -951.24663674 Ry
     Harris-Foulkes estimate   =    -951.57996544 Ry
     estimated scf accuracy    <      11.62354630 Ry

     total magnetization       =     2.00 Bohr mag/cell
     absolute magnetization    =     5.61 Bohr mag/cell

     iteration #  8     ecut=    70.00 Ry     beta= 0.70
     Davidson diagonalization with overlap
     ethr =  5.38E-03,  avg # of iterations =  1.5

     negative rho (up, down):  3.926E-02 3.388E-01

     total cpu time spent up to now is      857.9 secs

     total energy              =    -952.39584702 Ry
     Harris-Foulkes estimate   =    -952.02983163 Ry
     estimated scf accuracy    <      12.20832717 Ry

     total magnetization       =    -0.00 Bohr mag/cell
     absolute magnetization    =     5.25 Bohr mag/cell

     iteration #  9     ecut=    70.00 Ry     beta= 0.70
     Davidson diagonalization with overlap
     ethr =  5.38E-03,  avg # of iterations =  2.0

     negative rho (up, down):  3.797E-02 4.085E-01

     total cpu time spent up to now is      940.8 secs

     total energy              =    -951.18207540 Ry
     Harris-Foulkes estimate   =    -952.58482690 Ry
     estimated scf accuracy    <      44.92587963 Ry

     total magnetization       =     0.00 Bohr mag/cell
     absolute magnetization    =    10.17 Bohr mag/cell

     iteration # 10     ecut=    70.00 Ry     beta= 0.70
     Davidson diagonalization with overlap
     ethr =  5.38E-03,  avg # of iterations =  2.0

     negative rho (up, down):  2.903E-02 3.253E-01

     total cpu time spent up to now is     1025.9 secs

     total energy              =    -951.71989103 Ry
     Harris-Foulkes estimate   =    -951.86852530 Ry
     estimated scf accuracy    <       4.62959595 Ry

     total magnetization       =     0.00 Bohr mag/cell
     absolute magnetization    =     2.30 Bohr mag/cell

     iteration # 11     ecut=    70.00 Ry     beta= 0.70
     Davidson diagonalization with overlap
     ethr =  2.14E-03,  avg # of iterations =  1.5

     negative rho (up, down):  2.362E-02 3.243E-01

     total cpu time spent up to now is     1108.6 secs

     total energy              =    -951.84085244 Ry
     Harris-Foulkes estimate   =    -951.88242181 Ry
     estimated scf accuracy    <       2.31739385 Ry

     total magnetization       =    -0.00 Bohr mag/cell
     absolute magnetization    =     2.17 Bohr mag/cell

     iteration # 12     ecut=    70.00 Ry     beta= 0.70
     Davidson diagonalization with overlap
     ethr =  1.07E-03,  avg # of iterations =  4.0

     negative rho (up, down):  4.205E-02 2.745E-01

     total cpu time spent up to now is     1194.0 secs

     total energy              =    -951.77508849 Ry
     Harris-Foulkes estimate   =    -951.94179950 Ry
     estimated scf accuracy    <       4.48208438 Ry

     total magnetization       =     0.00 Bohr mag/cell
     absolute magnetization    =     2.44 Bohr mag/cell

     iteration # 13     ecut=    70.00 Ry     beta= 0.70
     Davidson diagonalization with overlap
     ethr =  1.07E-03,  avg # of iterations =  2.0

     negative rho (up, down):  3.238E-02 7.602E-02

     total cpu time spent up to now is     1278.4 secs

     total energy              =    -951.80898727 Ry
     Harris-Foulkes estimate   =    -951.89219263 Ry
     estimated scf accuracy    <       1.38194124 Ry

     total magnetization       =    -0.00 Bohr mag/cell
     absolute magnetization    =     0.85 Bohr mag/cell

     iteration # 14     ecut=    70.00 Ry     beta= 0.70
     Davidson diagonalization with overlap
     ethr =  6.40E-04,  avg # of iterations =  4.0

     negative rho (up, down):  2.921E-03 2.305E-01

     total cpu time spent up to now is     1364.5 secs

     total energy              =    -951.87238155 Ry
     Harris-Foulkes estimate   =    -951.87277964 Ry
     estimated scf accuracy    <       0.27954948 Ry

     total magnetization       =     0.00 Bohr mag/cell
     absolute magnetization    =     0.64 Bohr mag/cell

     iteration # 15     ecut=    70.00 Ry     beta= 0.70
     Davidson diagonalization with overlap
     ethr =  1.29E-04,  avg # of iterations =  6.0

     negative rho (up, down):  2.318E-03 3.076E-01

     total cpu time spent up to now is     1451.2 secs

     total energy              =    -951.87605018 Ry
     Harris-Foulkes estimate   =    -951.88967343 Ry
     estimated scf accuracy    <       0.51244237 Ry

     total magnetization       =     0.16 Bohr mag/cell
     absolute magnetization    =     1.20 Bohr mag/cell

     iteration # 16     ecut=    70.00 Ry     beta= 0.70
     Davidson diagonalization with overlap
     ethr =  1.29E-04,  avg # of iterations =  2.0

     negative rho (up, down):  3.800E-03 3.211E-01

     total cpu time spent up to now is     1535.1 secs

     total energy              =    -951.89631413 Ry
     Harris-Foulkes estimate   =    -951.89318424 Ry
     estimated scf accuracy    <       0.83355136 Ry

     total magnetization       =     0.00 Bohr mag/cell
     absolute magnetization    =     1.39 Bohr mag/cell

     iteration # 17     ecut=    70.00 Ry     beta= 0.70
     Davidson diagonalization with overlap
     ethr =  1.29E-04,  avg # of iterations =  1.0

     negative rho (up, down):  5.042E-03 3.345E-01

     total cpu time spent up to now is     1617.8 secs

     total energy              =    -951.87271687 Ry
     Harris-Foulkes estimate   =    -951.89764048 Ry
     estimated scf accuracy    <       1.21765091 Ry

     total magnetization       =    -0.00 Bohr mag/cell
     absolute magnetization    =     1.67 Bohr mag/cell

     iteration # 18     ecut=    70.00 Ry     beta= 0.70
     Davidson diagonalization with overlap
     ethr =  1.29E-04,  avg # of iterations =  2.0

     negative rho (up, down):  3.974E-03 3.131E-01

     total cpu time spent up to now is     1700.9 secs

     total energy              =    -951.87748617 Ry
     Harris-Foulkes estimate   =    -951.88255652 Ry
     estimated scf accuracy    <       0.52794025 Ry

     total magnetization       =    -0.00 Bohr mag/cell
     absolute magnetization    =     1.08 Bohr mag/cell

     iteration # 19     ecut=    70.00 Ry     beta= 0.70
     Davidson diagonalization with overlap
     ethr =  1.29E-04,  avg # of iterations =  2.0

     negative rho (up, down):  4.907E-03 3.198E-01

     total cpu time spent up to now is     1785.2 secs

     total energy              =    -951.87055217 Ry
     Harris-Foulkes estimate   =    -951.89065988 Ry
     estimated scf accuracy    <       1.14044578 Ry

     total magnetization       =    -0.00 Bohr mag/cell
     absolute magnetization    =     1.64 Bohr mag/cell

     iteration # 20     ecut=    70.00 Ry     beta= 0.70
     Davidson diagonalization with overlap
     ethr =  1.29E-04,  avg # of iterations =  2.0

     negative rho (up, down):  1.055E-02 2.404E-01

     total cpu time spent up to now is     1868.9 secs

     total energy              =    -951.86380742 Ry
     Harris-Foulkes estimate   =    -951.88039264 Ry
     estimated scf accuracy    <       0.45435135 Ry

     total magnetization       =    -0.00 Bohr mag/cell
     absolute magnetization    =     0.78 Bohr mag/cell

     iteration # 21     ecut=    70.00 Ry     beta= 0.70
     Davidson diagonalization with overlap
     ethr =  1.29E-04,  avg # of iterations =  2.0

     negative rho (up, down):  6.281E-03 3.089E-01

     total cpu time spent up to now is     1955.5 secs

     total energy              =    -951.89521341 Ry
     Harris-Foulkes estimate   =    -951.89410793 Ry
     estimated scf accuracy    <       1.07843133 Ry

     total magnetization       =     0.00 Bohr mag/cell
     absolute magnetization    =     1.57 Bohr mag/cell

     iteration # 22     ecut=    70.00 Ry     beta= 0.70
     Davidson diagonalization with overlap
     ethr =  1.29E-04,  avg # of iterations =  1.5

     negative rho (up, down):  1.818E-02 2.910E-01

     total cpu time spent up to now is     2038.1 secs

     total energy              =    -951.90692236 Ry
     Harris-Foulkes estimate   =    -951.89882601 Ry
     estimated scf accuracy    <       1.44680216 Ry

     total magnetization       =     0.00 Bohr mag/cell
     absolute magnetization    =     1.64 Bohr mag/cell

     iteration # 23     ecut=    70.00 Ry     beta= 0.70
     Davidson diagonalization with overlap
     ethr =  1.29E-04,  avg # of iterations =  2.0

     negative rho (up, down):  2.127E-02 3.019E-01

     total cpu time spent up to now is     2125.8 secs

     total energy              =    -951.86467568 Ry
     Harris-Foulkes estimate   =    -951.94084621 Ry
     estimated scf accuracy    <       3.01742274 Ry

     total magnetization       =     0.15 Bohr mag/cell
     absolute magnetization    =     2.47 Bohr mag/cell

     iteration # 24     ecut=    70.00 Ry     beta= 0.70
     Davidson diagonalization with overlap
     ethr =  1.29E-04,  avg # of iterations =  2.0

     negative rho (up, down):  7.884E-03 3.241E-01

     total cpu time spent up to now is     2212.8 secs

     total energy              =    -951.88967512 Ry
     Harris-Foulkes estimate   =    -951.88817395 Ry
     estimated scf accuracy    <       1.10165391 Ry

     total magnetization       =     0.00 Bohr mag/cell
     absolute magnetization    =     1.58 Bohr mag/cell

     iteration # 25     ecut=    70.00 Ry     beta= 0.70
     Davidson diagonalization with overlap
     ethr =  1.29E-04,  avg # of iterations =  1.5

     negative rho (up, down):  1.257E-02 2.911E-01

     total cpu time spent up to now is     2295.1 secs

     total energy              =    -952.07352997 Ry
     Harris-Foulkes estimate   =    -951.89839888 Ry
     estimated scf accuracy    <       1.27609552 Ry

     total magnetization       =     0.00 Bohr mag/cell
     absolute magnetization    =     1.67 Bohr mag/cell

     iteration # 26     ecut=    70.00 Ry     beta= 0.70
     Davidson diagonalization with overlap
     ethr =  1.29E-04,  avg # of iterations =  4.0

     negative rho (up, down):  3.560E-02 4.396E-01

     total cpu time spent up to now is     2408.2 secs

     total energy              =    -951.20261278 Ry
     Harris-Foulkes estimate   =    -952.73424423 Ry
     estimated scf accuracy    <      53.50312328 Ry

     total magnetization       =     0.00 Bohr mag/cell
     absolute magnetization    =    10.78 Bohr mag/cell

     iteration # 27     ecut=    70.00 Ry     beta= 0.70
     Davidson diagonalization with overlap
     ethr =  1.29E-04,  avg # of iterations =  3.0

     negative rho (up, down):  1.758E-02 3.618E-01

     total cpu time spent up to now is     2512.4 secs

     total energy              =    -951.84224709 Ry
     Harris-Foulkes estimate   =    -951.83319098 Ry
     estimated scf accuracy    <       1.08801137 Ry

     total magnetization       =    -0.00 Bohr mag/cell
     absolute magnetization    =     1.39 Bohr mag/cell

     iteration # 28     ecut=    70.00 Ry     beta= 0.70
     Davidson diagonalization with overlap
     ethr =  1.29E-04,  avg # of iterations =  4.0

     negative rho (up, down):  4.578E-02 3.696E-01

     total cpu time spent up to now is     2628.3 secs

     total energy              =    -952.03319514 Ry
     Harris-Foulkes estimate   =    -952.25330328 Ry
     estimated scf accuracy    <      30.57420106 Ry

     total magnetization       =     0.00 Bohr mag/cell
     absolute magnetization    =     8.58 Bohr mag/cell

     iteration # 29     ecut=    70.00 Ry     beta= 0.70
     Davidson diagonalization with overlap
     ethr =  1.29E-04,  avg # of iterations =  2.0

     negative rho (up, down):  4.915E-02 3.603E-01

     total cpu time spent up to now is     2716.1 secs

     total energy              =    -951.50868928 Ry
     Harris-Foulkes estimate   =    -952.06504103 Ry
     estimated scf accuracy    <      18.72957703 Ry

     total magnetization       =     0.00 Bohr mag/cell
     absolute magnetization    =     6.55 Bohr mag/cell

     iteration # 30     ecut=    70.00 Ry     beta= 0.70
     Davidson diagonalization with overlap
     ethr =  1.29E-04,  avg # of iterations =  3.0

     negative rho (up, down):  8.425E-03 3.521E-01

     total cpu time spent up to now is     2819.8 secs

     total energy              =    -952.00801196 Ry
     Harris-Foulkes estimate   =    -951.89266449 Ry
     estimated scf accuracy    <       3.62946772 Ry

     total magnetization       =     0.00 Bohr mag/cell
     absolute magnetization    =     2.62 Bohr mag/cell

     iteration # 31     ecut=    70.00 Ry     beta= 0.70
     Davidson diagonalization with overlap
     ethr =  1.29E-04,  avg # of iterations =  2.5

     negative rho (up, down):  1.364E-02 3.819E-01

     total cpu time spent up to now is     2907.9 secs

     total energy              =    -951.70346316 Ry
     Harris-Foulkes estimate   =    -952.04115680 Ry
     estimated scf accuracy    <       9.67478182 Ry

     total magnetization       =    -0.14 Bohr mag/cell
     absolute magnetization    =     4.67 Bohr mag/cell

     iteration # 32     ecut=    70.00 Ry     beta= 0.70
     Davidson diagonalization with overlap
     ethr =  1.29E-04,  avg # of iterations =  3.0

     negative rho (up, down):  2.816E-02 2.142E-01

     total cpu time spent up to now is     3004.5 secs

     total energy              =    -951.84565098 Ry
     Harris-Foulkes estimate   =    -951.86008839 Ry
     estimated scf accuracy    <       0.98766471 Ry

     total magnetization       =     0.00 Bohr mag/cell
     absolute magnetization    =     0.67 Bohr mag/cell

     iteration # 33     ecut=    70.00 Ry     beta= 0.70
     Davidson diagonalization with overlap
     ethr =  1.29E-04,  avg # of iterations =  2.5

     negative rho (up, down):  4.224E-03 2.340E-01

     total cpu time spent up to now is     3091.6 secs

     total energy              =    -951.87306489 Ry
     Harris-Foulkes estimate   =    -951.86813701 Ry
     estimated scf accuracy    <       0.05843218 Ry

     total magnetization       =     0.00 Bohr mag/cell
     absolute magnetization    =     0.35 Bohr mag/cell

     iteration # 34     ecut=    70.00 Ry     beta= 0.70
     Davidson diagonalization with overlap
     ethr =  2.71E-05,  avg # of iterations =  3.5

     negative rho (up, down):  1.002E-02 7.328E-02

     total cpu time spent up to now is     3185.8 secs

     total energy              =    -951.86975358 Ry
     Harris-Foulkes estimate   =    -951.88336065 Ry
     estimated scf accuracy    <       0.29508791 Ry

     total magnetization       =     0.00 Bohr mag/cell
     absolute magnetization    =     0.35 Bohr mag/cell

     iteration # 35     ecut=    70.00 Ry     beta= 0.70
     Davidson diagonalization with overlap
     ethr =  2.71E-05,  avg # of iterations =  3.0

     negative rho (up, down):  4.266E-03 9.156E-02

     total cpu time spent up to now is     3284.0 secs

     total energy              =    -951.86760362 Ry
     Harris-Foulkes estimate   =    -951.88754995 Ry
     estimated scf accuracy    <       0.14244332 Ry

     total magnetization       =    -0.00 Bohr mag/cell
     absolute magnetization    =     0.18 Bohr mag/cell

     iteration # 36     ecut=    70.00 Ry     beta= 0.70
     Davidson diagonalization with overlap
     ethr =  2.71E-05,  avg # of iterations =  4.0

     negative rho (up, down):  7.192E-03 3.551E-01

     total cpu time spent up to now is     3388.8 secs

     total energy              =    -951.82488809 Ry
     Harris-Foulkes estimate   =    -951.92451299 Ry
     estimated scf accuracy    <       3.23870252 Ry

     total magnetization       =    -0.00 Bohr mag/cell
     absolute magnetization    =     2.69 Bohr mag/cell

     iteration # 37     ecut=    70.00 Ry     beta= 0.70
     Davidson diagonalization with overlap
     ethr =  2.71E-05,  avg # of iterations =  3.0

     negative rho (up, down):  2.552E-03 2.830E-01

     total cpu time spent up to now is     3484.5 secs

     total energy              =    -951.87285781 Ry
     Harris-Foulkes estimate   =    -951.86548499 Ry
     estimated scf accuracy    <       0.01880039 Ry

     total magnetization       =     0.00 Bohr mag/cell
     absolute magnetization    =     0.17 Bohr mag/cell

     iteration # 38     ecut=    70.00 Ry     beta= 0.70
     Davidson diagonalization with overlap
     ethr =  8.70E-06,  avg # of iterations =  4.0

     negative rho (up, down):  3.520E-03 2.699E-01

     total cpu time spent up to now is     3599.1 secs

     total energy              =    -951.88720825 Ry
     Harris-Foulkes estimate   =    -951.89063683 Ry
     estimated scf accuracy    <       0.60573763 Ry

     total magnetization       =     0.11 Bohr mag/cell
     absolute magnetization    =     1.20 Bohr mag/cell

     iteration # 39     ecut=    70.00 Ry     beta= 0.70
     Davidson diagonalization with overlap
     ethr =  8.70E-06,  avg # of iterations =  3.5

     negative rho (up, down):  3.943E-03 2.775E-01

     total cpu time spent up to now is     3687.1 secs

     total energy              =    -951.86809346 Ry
     Harris-Foulkes estimate   =    -951.88754862 Ry
     estimated scf accuracy    <       0.49488594 Ry

     total magnetization       =    -0.00 Bohr mag/cell
     absolute magnetization    =     1.01 Bohr mag/cell

     iteration # 40     ecut=    70.00 Ry     beta= 0.70
     Davidson diagonalization with overlap
     ethr =  8.70E-06,  avg # of iterations =  4.0

     negative rho (up, down):  2.687E-03 2.278E-01

     total cpu time spent up to now is     3786.2 secs

     total energy              =    -951.87648318 Ry
     Harris-Foulkes estimate   =    -951.87545352 Ry
     estimated scf accuracy    <       0.05068882 Ry

     total magnetization       =    -0.00 Bohr mag/cell
     absolute magnetization    =     0.34 Bohr mag/cell

     iteration # 41     ecut=    70.00 Ry     beta= 0.70
     Davidson diagonalization with overlap
     ethr =  8.70E-06,  avg # of iterations =  2.0

     negative rho (up, down):  1.231E-03 2.146E-01

     total cpu time spent up to now is     3876.6 secs

     total energy              =    -951.87926819 Ry
     Harris-Foulkes estimate   =    -951.87788981 Ry
     estimated scf accuracy    <       0.05275959 Ry

     total magnetization       =    -0.00 Bohr mag/cell
     absolute magnetization    =     0.37 Bohr mag/cell

     iteration # 42     ecut=    70.00 Ry     beta= 0.70
     Davidson diagonalization with overlap
     ethr =  8.70E-06,  avg # of iterations =  3.0

     negative rho (up, down):  3.365E-03 1.823E-01

     total cpu time spent up to now is     3962.9 secs

     total energy              =    -951.88038647 Ry
     Harris-Foulkes estimate   =    -951.87963869 Ry
     estimated scf accuracy    <       0.08297933 Ry

     total magnetization       =     0.00 Bohr mag/cell
     absolute magnetization    =     0.42 Bohr mag/cell

     iteration # 43     ecut=    70.00 Ry     beta= 0.70
     Davidson diagonalization with overlap
     ethr =  8.70E-06,  avg # of iterations =  2.5

     negative rho (up, down):  5.265E-03 2.309E-01

     total cpu time spent up to now is     4051.4 secs

     total energy              =    -951.88345130 Ry
     Harris-Foulkes estimate   =    -951.88228095 Ry
     estimated scf accuracy    <       0.25237986 Ry

     total magnetization       =    -0.00 Bohr mag/cell
     absolute magnetization    =     0.72 Bohr mag/cell

     iteration # 44     ecut=    70.00 Ry     beta= 0.70
     Davidson diagonalization with overlap
     ethr =  8.70E-06,  avg # of iterations =  2.5

     negative rho (up, down):  8.916E-03 2.440E-01

     total cpu time spent up to now is     4141.9 secs

     total energy              =    -951.88400957 Ry
     Harris-Foulkes estimate   =    -951.88553122 Ry
     estimated scf accuracy    <       0.49522955 Ry

     total magnetization       =     0.00 Bohr mag/cell
     absolute magnetization    =     0.98 Bohr mag/cell

     iteration # 45     ecut=    70.00 Ry     beta= 0.70
     Davidson diagonalization with overlap
     ethr =  8.70E-06,  avg # of iterations =  2.0

     negative rho (up, down):  9.711E-03 2.622E-01

     total cpu time spent up to now is     4227.5 secs

     total energy              =    -951.88542081 Ry
     Harris-Foulkes estimate   =    -951.88488689 Ry
     estimated scf accuracy    <       0.56042296 Ry

     total magnetization       =     0.00 Bohr mag/cell
     absolute magnetization    =     1.07 Bohr mag/cell

     iteration # 46     ecut=    70.00 Ry     beta= 0.70
     Davidson diagonalization with overlap
     ethr =  8.70E-06,  avg # of iterations =  3.0

     negative rho (up, down):  1.026E-02 2.898E-01

     total cpu time spent up to now is     4316.8 secs

     total energy              =    -951.88190525 Ry
     Harris-Foulkes estimate   =    -951.88917945 Ry
     estimated scf accuracy    <       0.82919436 Ry

     total magnetization       =     0.00 Bohr mag/cell
     absolute magnetization    =     1.33 Bohr mag/cell

     iteration # 47     ecut=    70.00 Ry     beta= 0.70
     Davidson diagonalization with overlap
     ethr =  8.70E-06,  avg # of iterations =  2.5

     negative rho (up, down):  1.079E-02 2.689E-01

     total cpu time spent up to now is     4405.8 secs

     total energy              =    -951.88564849 Ry
     Harris-Foulkes estimate   =    -951.88562801 Ry
     estimated scf accuracy    <       0.67640987 Ry

     total magnetization       =     0.00 Bohr mag/cell
     absolute magnetization    =     1.18 Bohr mag/cell

     iteration # 48     ecut=    70.00 Ry     beta= 0.70
     Davidson diagonalization with overlap
     ethr =  8.70E-06,  avg # of iterations =  2.0

     negative rho (up, down):  1.038E-02 2.829E-01

     total cpu time spent up to now is     4492.6 secs

     total energy              =    -951.88506554 Ry
     Harris-Foulkes estimate   =    -951.88739854 Ry
     estimated scf accuracy    <       0.73099709 Ry

     total magnetization       =     0.00 Bohr mag/cell
     absolute magnetization    =     1.22 Bohr mag/cell

     iteration # 49     ecut=    70.00 Ry     beta= 0.70
     Davidson diagonalization with overlap
     ethr =  8.70E-06,  avg # of iterations =  2.0

     negative rho (up, down):  8.859E-03 2.904E-01

     total cpu time spent up to now is     4575.8 secs

     total energy              =    -951.88098347 Ry
     Harris-Foulkes estimate   =    -951.88557847 Ry
     estimated scf accuracy    <       0.62263068 Ry

     total magnetization       =     0.00 Bohr mag/cell
     absolute magnetization    =     1.13 Bohr mag/cell

     iteration # 50     ecut=    70.00 Ry     beta= 0.70
     Davidson diagonalization with overlap
     ethr =  8.70E-06,  avg # of iterations =  2.0

     negative rho (up, down):  5.671E-03 2.938E-01

     total cpu time spent up to now is     4661.1 secs

     total energy              =    -951.87535419 Ry
     Harris-Foulkes estimate   =    -951.88230528 Ry
     estimated scf accuracy    <       0.39869178 Ry

     total magnetization       =     0.00 Bohr mag/cell
     absolute magnetization    =     0.93 Bohr mag/cell

     iteration # 51     ecut=    70.00 Ry     beta= 0.70
     Davidson diagonalization with overlap
     ethr =  8.70E-06,  avg # of iterations =  4.0

     negative rho (up, down):  3.642E-03 2.756E-01

     total cpu time spent up to now is     4761.0 secs

     total energy              =    -951.88021405 Ry
     Harris-Foulkes estimate   =    -951.88100781 Ry
     estimated scf accuracy    <       0.24657524 Ry

     total magnetization       =    -0.00 Bohr mag/cell
     absolute magnetization    =     0.75 Bohr mag/cell

     iteration # 52     ecut=    70.00 Ry     beta= 0.70
     Davidson diagonalization with overlap
     ethr =  8.70E-06,  avg # of iterations =  2.5

     negative rho (up, down):  4.923E-03 2.429E-01

     total cpu time spent up to now is     4850.7 secs

     total energy              =    -951.88112918 Ry
     Harris-Foulkes estimate   =    -951.88289277 Ry
     estimated scf accuracy    <       0.30608692 Ry

     total magnetization       =    -0.00 Bohr mag/cell
     absolute magnetization    =     0.80 Bohr mag/cell

     iteration # 53     ecut=    70.00 Ry     beta= 0.70
     Davidson diagonalization with overlap
     ethr =  8.70E-06,  avg # of iterations =  3.0

     negative rho (up, down):  1.959E-03 2.786E-01

     total cpu time spent up to now is     4940.3 secs

     total energy              =    -951.88257657 Ry
     Harris-Foulkes estimate   =    -951.88257237 Ry
     estimated scf accuracy    <       0.28582835 Ry

     total magnetization       =    -0.00 Bohr mag/cell
     absolute magnetization    =     0.85 Bohr mag/cell

     iteration # 54     ecut=    70.00 Ry     beta= 0.70
     Davidson diagonalization with overlap
     ethr =  8.70E-06,  avg # of iterations =  2.0

     negative rho (up, down):  1.642E-03 2.843E-01

     total cpu time spent up to now is     5024.4 secs

     total energy              =    -951.88126182 Ry
     Harris-Foulkes estimate   =    -951.88272597 Ry
     estimated scf accuracy    <       0.29195080 Ry

     total magnetization       =    -0.00 Bohr mag/cell
     absolute magnetization    =     0.86 Bohr mag/cell

     iteration # 55     ecut=    70.00 Ry     beta= 0.70
     Davidson diagonalization with overlap
     ethr =  8.70E-06,  avg # of iterations =  3.0

     negative rho (up, down):  3.455E-03 2.767E-01

     total cpu time spent up to now is     5116.1 secs

     total energy              =    -951.87855835 Ry
     Harris-Foulkes estimate   =    -951.88411098 Ry
     estimated scf accuracy    <       0.32988439 Ry

     total magnetization       =     0.00 Bohr mag/cell
     absolute magnetization    =     0.88 Bohr mag/cell

     iteration # 56     ecut=    70.00 Ry     beta= 0.70
     Davidson diagonalization with overlap
     ethr =  8.70E-06,  avg # of iterations =  3.0

     negative rho (up, down):  4.263E-03 2.851E-01

     total cpu time spent up to now is     5210.5 secs

     total energy              =    -951.95827577 Ry
     Harris-Foulkes estimate   =    -951.88481135 Ry
     estimated scf accuracy    <       0.54864875 Ry

     total magnetization       =    -0.00 Bohr mag/cell
     absolute magnetization    =     1.16 Bohr mag/cell

     iteration # 57     ecut=    70.00 Ry     beta= 0.70
     Davidson diagonalization with overlap
     ethr =  8.70E-06,  avg # of iterations =  5.0

     negative rho (up, down):  3.844E-03 4.369E-01

     total cpu time spent up to now is     5364.5 secs

     total energy              =    -951.34801993 Ry
     Harris-Foulkes estimate   =    -952.44482072 Ry
     estimated scf accuracy    <      32.09426956 Ry

     total magnetization       =     0.00 Bohr mag/cell
     absolute magnetization    =     8.55 Bohr mag/cell

     iteration # 58     ecut=    70.00 Ry     beta= 0.70
     Davidson diagonalization with overlap
     ethr =  8.70E-06,  avg # of iterations =  5.0

     negative rho (up, down):  7.776E-03 3.519E-01

     total cpu time spent up to now is     5526.6 secs

     total energy              =    -951.81455065 Ry
     Harris-Foulkes estimate   =    -951.85193947 Ry
     estimated scf accuracy    <       0.76903413 Ry

     total magnetization       =     0.00 Bohr mag/cell
     absolute magnetization    =     0.83 Bohr mag/cell

     iteration # 59     ecut=    70.00 Ry     beta= 0.70
     Davidson diagonalization with overlap
     ethr =  8.70E-06,  avg # of iterations =  5.0

     negative rho (up, down):  3.674E-03 2.733E-01

     total cpu time spent up to now is     5680.0 secs

     total energy              =    -951.87441986 Ry
     Harris-Foulkes estimate   =    -951.86270457 Ry
     estimated scf accuracy    <       0.06628371 Ry

     total magnetization       =    -0.00 Bohr mag/cell
     absolute magnetization    =     0.30 Bohr mag/cell

     iteration # 60     ecut=    70.00 Ry     beta= 0.70
     Davidson diagonalization with overlap
     ethr =  8.70E-06,  avg # of iterations =  4.0

     negative rho (up, down):  4.413E-03 2.703E-01

     total cpu time spent up to now is     5802.4 secs

     total energy              =    -951.89202724 Ry
     Harris-Foulkes estimate   =    -951.88699177 Ry
     estimated scf accuracy    <       0.52255296 Ry

     total magnetization       =    -0.00 Bohr mag/cell
     absolute magnetization    =     1.06 Bohr mag/cell

     iteration # 61     ecut=    70.00 Ry     beta= 0.70
     Davidson diagonalization with overlap
     ethr =  8.70E-06,  avg # of iterations =  4.0

     negative rho (up, down):  7.267E-03 2.789E-01

     total cpu time spent up to now is     5909.1 secs

     total energy              =    -951.89211347 Ry
     Harris-Foulkes estimate   =    -951.89684257 Ry
     estimated scf accuracy    <       0.86344258 Ry

     total magnetization       =     0.00 Bohr mag/cell
     absolute magnetization    =     1.33 Bohr mag/cell

     iteration # 62     ecut=    70.00 Ry     beta= 0.70
     Davidson diagonalization with overlap
     ethr =  8.70E-06,  avg # of iterations =  3.0

     negative rho (up, down):  5.963E-03 3.050E-01

     total cpu time spent up to now is     6011.0 secs

     total energy              =    -951.88341682 Ry
     Harris-Foulkes estimate   =    -951.89342072 Ry
     estimated scf accuracy    <       0.92013618 Ry

     total magnetization       =    -0.00 Bohr mag/cell
     absolute magnetization    =     1.43 Bohr mag/cell

     iteration # 63     ecut=    70.00 Ry     beta= 0.70
     Davidson diagonalization with overlap
     ethr =  8.70E-06,  avg # of iterations =  2.0

     negative rho (up, down):  8.132E-03 3.157E-01

     total cpu time spent up to now is     6111.4 secs

     total energy              =    -951.86110506 Ry
     Harris-Foulkes estimate   =    -951.88653102 Ry
     estimated scf accuracy    <       0.62523558 Ry

     total magnetization       =     0.00 Bohr mag/cell
     absolute magnetization    =     1.09 Bohr mag/cell

     iteration # 64     ecut=    70.00 Ry     beta= 0.70
     Davidson diagonalization with overlap
     ethr =  8.70E-06,  avg # of iterations =  4.0

     negative rho (up, down):  2.593E-03 2.562E-01

     total cpu time spent up to now is     6224.0 secs

     total energy              =    -951.87468200 Ry
     Harris-Foulkes estimate   =    -951.87510744 Ry
     estimated scf accuracy    <       0.06248006 Ry

     total magnetization       =    -0.00 Bohr mag/cell
     absolute magnetization    =     0.33 Bohr mag/cell

     iteration # 65     ecut=    70.00 Ry     beta= 0.70
     Davidson diagonalization with overlap
     ethr =  8.70E-06,  avg # of iterations =  3.0

     negative rho (up, down):  1.511E-03 1.594E-01

     total cpu time spent up to now is     6337.9 secs

     total energy              =    -951.88247767 Ry
     Harris-Foulkes estimate   =    -951.87904246 Ry
     estimated scf accuracy    <       0.05916398 Ry

     total magnetization       =     0.00 Bohr mag/cell
     absolute magnetization    =     0.33 Bohr mag/cell

     iteration # 66     ecut=    70.00 Ry     beta= 0.70
     Davidson diagonalization with overlap
     ethr =  8.70E-06,  avg # of iterations =  2.5

     negative rho (up, down):  3.163E-03 3.239E-01

     total cpu time spent up to now is     6457.0 secs

     total energy              =    -951.86013074 Ry
     Harris-Foulkes estimate   =    -951.89119050 Ry
     estimated scf accuracy    <       0.80026648 Ry

     total magnetization       =    -0.00 Bohr mag/cell
     absolute magnetization    =     1.36 Bohr mag/cell

     iteration # 67     ecut=    70.00 Ry     beta= 0.70
     Davidson diagonalization with overlap
     ethr =  8.70E-06,  avg # of iterations =  3.5

     negative rho (up, down):  1.661E-03 2.614E-01

     total cpu time spent up to now is     6580.6 secs

     total energy              =    -951.87464465 Ry
     Harris-Foulkes estimate   =    -951.87703641 Ry
     estimated scf accuracy    <       0.18584148 Ry

     total magnetization       =    -0.00 Bohr mag/cell
     absolute magnetization    =     0.66 Bohr mag/cell

     iteration # 68     ecut=    70.00 Ry     beta= 0.70
     Davidson diagonalization with overlap
     ethr =  8.70E-06,  avg # of iterations =  3.0

     negative rho (up, down):  1.371E-03 1.741E-01

     total cpu time spent up to now is     6685.7 secs

     total energy              =    -951.87809967 Ry
     Harris-Foulkes estimate   =    -951.87709528 Ry
     estimated scf accuracy    <       0.00494514 Ry

     total magnetization       =    -0.09 Bohr mag/cell
     absolute magnetization    =     0.17 Bohr mag/cell

     iteration # 69     ecut=    70.00 Ry     beta= 0.70
     Davidson diagonalization with overlap
     ethr =  2.29E-06,  avg # of iterations =  4.0

     negative rho (up, down):  3.893E-03 9.650E-02

     total cpu time spent up to now is     6800.3 secs

     total energy              =    -951.87673690 Ry
     Harris-Foulkes estimate   =    -951.88015744 Ry
     estimated scf accuracy    <       0.05672539 Ry

     total magnetization       =     0.00 Bohr mag/cell
     absolute magnetization    =     0.19 Bohr mag/cell

     iteration # 70     ecut=    70.00 Ry     beta= 0.70
     Davidson diagonalization with overlap
     ethr =  2.29E-06,  avg # of iterations =  3.0

     negative rho (up, down):  1.229E-03 1.075E-01

     total cpu time spent up to now is     6908.5 secs

     total energy              =    -951.87861789 Ry
     Harris-Foulkes estimate   =    -951.87898258 Ry
     estimated scf accuracy    <       0.01746518 Ry

     total magnetization       =    -0.00 Bohr mag/cell
     absolute magnetization    =     0.16 Bohr mag/cell

     iteration # 71     ecut=    70.00 Ry     beta= 0.70
     Davidson diagonalization with overlap
     ethr =  2.29E-06,  avg # of iterations =  3.0

     negative rho (up, down):  1.199E-03 8.752E-02

     total cpu time spent up to now is     7008.3 secs

     total energy              =    -951.87915189 Ry
     Harris-Foulkes estimate   =    -951.87914910 Ry
     estimated scf accuracy    <       0.00217622 Ry

     total magnetization       =     0.00 Bohr mag/cell
     absolute magnetization    =     0.08 Bohr mag/cell

     iteration # 72     ecut=    70.00 Ry     beta= 0.70
     Davidson diagonalization with overlap
     ethr =  1.01E-06,  avg # of iterations =  1.0

     negative rho (up, down):  1.205E-03 6.615E-02

     total cpu time spent up to now is     7101.2 secs

     total energy              =    -951.87924094 Ry
     Harris-Foulkes estimate   =    -951.87918616 Ry
     estimated scf accuracy    <       0.00098364 Ry

     total magnetization       =     0.00 Bohr mag/cell
     absolute magnetization    =     0.06 Bohr mag/cell

     iteration # 73     ecut=    70.00 Ry     beta= 0.70
     Davidson diagonalization with overlap
     ethr =  4.55E-07,  avg # of iterations =  1.0

     negative rho (up, down):  1.209E-03 6.724E-02

     total cpu time spent up to now is     7193.8 secs

     total energy              =    -951.87926973 Ry
     Harris-Foulkes estimate   =    -951.87924575 Ry
     estimated scf accuracy    <       0.00134048 Ry

     total magnetization       =     0.00 Bohr mag/cell
     absolute magnetization    =     0.07 Bohr mag/cell

     iteration # 74     ecut=    70.00 Ry     beta= 0.70
     Davidson diagonalization with overlap
     ethr =  4.55E-07,  avg # of iterations =  1.5

     negative rho (up, down):  1.278E-03 8.063E-02

     total cpu time spent up to now is     7285.8 secs

     total energy              =    -951.87961567 Ry
     Harris-Foulkes estimate   =    -951.87928905 Ry
     estimated scf accuracy    <       0.00321386 Ry

     total magnetization       =    -0.00 Bohr mag/cell
     absolute magnetization    =     0.09 Bohr mag/cell

     iteration # 75     ecut=    70.00 Ry     beta= 0.70
     Davidson diagonalization with overlap
     ethr =  4.55E-07,  avg # of iterations =  3.0

     negative rho (up, down):  3.951E-03 1.724E-01

     total cpu time spent up to now is     7397.0 secs

     total energy              =    -951.87950911 Ry
     Harris-Foulkes estimate   =    -951.88082300 Ry
     estimated scf accuracy    <       0.09276492 Ry

     total magnetization       =     0.00 Bohr mag/cell
     absolute magnetization    =     0.41 Bohr mag/cell

     iteration # 76     ecut=    70.00 Ry     beta= 0.70
     Davidson diagonalization with overlap
     ethr =  4.55E-07,  avg # of iterations =  3.5

     negative rho (up, down):  5.121E-03 1.811E-01

     total cpu time spent up to now is     7495.9 secs

     total energy              =    -951.87850488 Ry
     Harris-Foulkes estimate   =    -951.87952984 Ry
     estimated scf accuracy    <       0.09518322 Ry

     total magnetization       =    -0.00 Bohr mag/cell
     absolute magnetization    =     0.42 Bohr mag/cell

     iteration # 77     ecut=    70.00 Ry     beta= 0.70
     Davidson diagonalization with overlap
     ethr =  4.55E-07,  avg # of iterations =  2.5

     negative rho (up, down):  4.685E-03 2.100E-01

     total cpu time spent up to now is     7602.9 secs

     total energy              =    -951.87743276 Ry
     Harris-Foulkes estimate   =    -951.87881952 Ry
     estimated scf accuracy    <       0.08837248 Ry

     total magnetization       =     0.00 Bohr mag/cell
     absolute magnetization    =     0.42 Bohr mag/cell

     iteration # 78     ecut=    70.00 Ry     beta= 0.70
     Davidson diagonalization with overlap
     ethr =  4.55E-07,  avg # of iterations =  3.0

     negative rho (up, down):  3.133E-03 2.018E-01

     total cpu time spent up to now is     7716.3 secs

     total energy              =    -951.87815766 Ry
     Harris-Foulkes estimate   =    -951.87805466 Ry
     estimated scf accuracy    <       0.03783540 Ry

     total magnetization       =    -0.00 Bohr mag/cell
     absolute magnetization    =     0.29 Bohr mag/cell

     iteration # 79     ecut=    70.00 Ry     beta= 0.70
     Davidson diagonalization with overlap
     ethr =  4.55E-07,  avg # of iterations =  2.5

     negative rho (up, down):  1.998E-03 1.718E-01

     total cpu time spent up to now is     7830.2 secs

     total energy              =    -951.87840400 Ry
     Harris-Foulkes estimate   =    -951.87838339 Ry
     estimated scf accuracy    <       0.00940828 Ry

     total magnetization       =    -0.00 Bohr mag/cell
     absolute magnetization    =     0.14 Bohr mag/cell

     iteration # 80     ecut=    70.00 Ry     beta= 0.70
     Davidson diagonalization with overlap
     ethr =  4.55E-07,  avg # of iterations =  2.5

     negative rho (up, down):  1.249E-03 5.597E-02

     total cpu time spent up to now is     7943.3 secs

     total energy              =    -951.87923928 Ry
     Harris-Foulkes estimate   =    -951.87869826 Ry
     estimated scf accuracy    <       0.00047605 Ry

     total magnetization       =    -0.00 Bohr mag/cell
     absolute magnetization    =     0.04 Bohr mag/cell

     iteration # 81     ecut=    70.00 Ry     beta= 0.70
     Davidson diagonalization with overlap
     ethr =  2.20E-07,  avg # of iterations =  3.5

     negative rho (up, down):  1.229E-03 1.364E-02

     total cpu time spent up to now is     8047.3 secs

     total energy              =    -951.87928696 Ry
     Harris-Foulkes estimate   =    -951.87925184 Ry
     estimated scf accuracy    <       0.00014371 Ry

     total magnetization       =    -0.00 Bohr mag/cell
     absolute magnetization    =     0.03 Bohr mag/cell

     iteration # 82     ecut=    70.00 Ry     beta= 0.70
     Davidson diagonalization with overlap
     ethr =  6.65E-08,  avg # of iterations =  3.0

     negative rho (up, down):  1.232E-03 1.268E-02

     total cpu time spent up to now is     8149.3 secs

     total energy              =    -951.87929383 Ry
     Harris-Foulkes estimate   =    -951.87929308 Ry
     estimated scf accuracy    <       0.00015799 Ry

     total magnetization       =     0.00 Bohr mag/cell
     absolute magnetization    =     0.02 Bohr mag/cell

     iteration # 83     ecut=    70.00 Ry     beta= 0.70
     Davidson diagonalization with overlap
     ethr =  6.65E-08,  avg # of iterations =  2.0

     negative rho (up, down):  1.253E-03 4.512E-02

     total cpu time spent up to now is     8250.4 secs

     total energy              =    -951.87922060 Ry
     Harris-Foulkes estimate   =    -951.87931204 Ry
     estimated scf accuracy    <       0.00114398 Ry

     total magnetization       =     0.00 Bohr mag/cell
     absolute magnetization    =     0.05 Bohr mag/cell

     iteration # 84     ecut=    70.00 Ry     beta= 0.70
     Davidson diagonalization with overlap
     ethr =  6.65E-08,  avg # of iterations =  2.5

     negative rho (up, down):  1.207E-03 6.255E-03

     total cpu time spent up to now is     8356.5 secs

     total energy              =    -951.87928947 Ry
     Harris-Foulkes estimate   =    -951.87925201 Ry
     estimated scf accuracy    <       0.00004966 Ry

     total magnetization       =    -0.00 Bohr mag/cell
     absolute magnetization    =     0.02 Bohr mag/cell

     iteration # 85     ecut=    70.00 Ry     beta= 0.70
     Davidson diagonalization with overlap
     ethr =  2.30E-08,  avg # of iterations =  2.0

     negative rho (up, down):  1.208E-03 8.749E-03

     total cpu time spent up to now is     8458.3 secs

     total energy              =    -951.87929205 Ry
     Harris-Foulkes estimate   =    -951.87929364 Ry
     estimated scf accuracy    <       0.00004206 Ry

     total magnetization       =    -0.00 Bohr mag/cell
     absolute magnetization    =     0.01 Bohr mag/cell

     iteration # 86     ecut=    70.00 Ry     beta= 0.70
     Davidson diagonalization with overlap
     ethr =  1.95E-08,  avg # of iterations =  2.0

     negative rho (up, down):  1.204E-03 1.861E-02

     total cpu time spent up to now is     8562.7 secs

     total energy              =    -951.87929238 Ry
     Harris-Foulkes estimate   =    -951.87929427 Ry
     estimated scf accuracy    <       0.00014426 Ry

     total magnetization       =    -0.00 Bohr mag/cell
     absolute magnetization    =     0.02 Bohr mag/cell

     iteration # 87     ecut=    70.00 Ry     beta= 0.70
     Davidson diagonalization with overlap
     ethr =  1.95E-08,  avg # of iterations =  2.0

     negative rho (up, down):  1.205E-03 2.253E-02

     total cpu time spent up to now is     8661.0 secs

     total energy              =    -951.87929133 Ry
     Harris-Foulkes estimate   =    -951.87929353 Ry
     estimated scf accuracy    <       0.00016486 Ry

     total magnetization       =    -0.00 Bohr mag/cell
     absolute magnetization    =     0.02 Bohr mag/cell

     iteration # 88     ecut=    70.00 Ry     beta= 0.70
     Davidson diagonalization with overlap
     ethr =  1.95E-08,  avg # of iterations =  2.0

     negative rho (up, down):  1.204E-03 3.024E-02

     total cpu time spent up to now is     8766.0 secs

     total energy              =    -951.87927704 Ry
     Harris-Foulkes estimate   =    -951.87929296 Ry
     estimated scf accuracy    <       0.00030706 Ry

     total magnetization       =    -0.00 Bohr mag/cell
     absolute magnetization    =     0.03 Bohr mag/cell

     iteration # 89     ecut=    70.00 Ry     beta= 0.70
     Davidson diagonalization with overlap
     ethr =  1.95E-08,  avg # of iterations =  2.0

     negative rho (up, down):  1.202E-03 1.325E-02

     total cpu time spent up to now is     8870.5 secs

     total energy              =    -951.87929125 Ry
     Harris-Foulkes estimate   =    -951.87928155 Ry
     estimated scf accuracy    <       0.00001735 Ry

     total magnetization       =    -0.00 Bohr mag/cell
     absolute magnetization    =     0.01 Bohr mag/cell

     iteration # 90     ecut=    70.00 Ry     beta= 0.70
     Davidson diagonalization with overlap
     ethr =  8.03E-09,  avg # of iterations =  1.0

     negative rho (up, down):  1.201E-03 6.454E-03

     total cpu time spent up to now is     8968.1 secs

     total energy              =    -951.87929350 Ry
     Harris-Foulkes estimate   =    -951.87929170 Ry
     estimated scf accuracy    <       0.00000799 Ry

     total magnetization       =    -0.00 Bohr mag/cell
     absolute magnetization    =     0.01 Bohr mag/cell

     iteration # 91     ecut=    70.00 Ry     beta= 0.70
     Davidson diagonalization with overlap
     ethr =  3.70E-09,  avg # of iterations =  1.0

     negative rho (up, down):  1.202E-03 6.762E-03

     total cpu time spent up to now is     9066.5 secs

     total energy              =    -951.87929357 Ry
     Harris-Foulkes estimate   =    -951.87929360 Ry
     estimated scf accuracy    <       0.00001481 Ry

     total magnetization       =    -0.00 Bohr mag/cell
     absolute magnetization    =     0.01 Bohr mag/cell

     iteration # 92     ecut=    70.00 Ry     beta= 0.70
     Davidson diagonalization with overlap
     ethr =  3.70E-09,  avg # of iterations =  1.5

     negative rho (up, down):  1.204E-03 8.941E-03

     total cpu time spent up to now is     9160.3 secs

     total energy              =    -951.87929274 Ry
     Harris-Foulkes estimate   =    -951.87929363 Ry
     estimated scf accuracy    <       0.00002589 Ry

     total magnetization       =     0.00 Bohr mag/cell
     absolute magnetization    =     0.01 Bohr mag/cell

     iteration # 93     ecut=    70.00 Ry     beta= 0.70
     Davidson diagonalization with overlap
     ethr =  3.70E-09,  avg # of iterations =  1.0

     negative rho (up, down):  1.202E-03 7.628E-03

     total cpu time spent up to now is     9257.3 secs

     total energy              =    -951.87929354 Ry
     Harris-Foulkes estimate   =    -951.87929281 Ry
     estimated scf accuracy    <       0.00001568 Ry

     total magnetization       =    -0.00 Bohr mag/cell
     absolute magnetization    =     0.01 Bohr mag/cell

     iteration # 94     ecut=    70.00 Ry     beta= 0.70
     Davidson diagonalization with overlap
     ethr =  3.70E-09,  avg # of iterations =  2.0

     negative rho (up, down):  1.205E-03 1.541E-02

     total cpu time spent up to now is     9365.2 secs

     total energy              =    -951.87929079 Ry
     Harris-Foulkes estimate   =    -951.87929500 Ry
     estimated scf accuracy    <       0.00010214 Ry

     total magnetization       =     0.00 Bohr mag/cell
     absolute magnetization    =     0.02 Bohr mag/cell

     iteration # 95     ecut=    70.00 Ry     beta= 0.70
     Davidson diagonalization with overlap
     ethr =  3.70E-09,  avg # of iterations =  2.0

     negative rho (up, down):  1.208E-03 1.714E-02

     total cpu time spent up to now is     9467.5 secs

     total energy              =    -951.87928961 Ry
     Harris-Foulkes estimate   =    -951.87929123 Ry
     estimated scf accuracy    <       0.00009418 Ry

     total magnetization       =    -0.00 Bohr mag/cell
     absolute magnetization    =     0.02 Bohr mag/cell

     iteration # 96     ecut=    70.00 Ry     beta= 0.70
     Davidson diagonalization with overlap
     ethr =  3.70E-09,  avg # of iterations =  1.0

     negative rho (up, down):  1.208E-03 1.726E-02

     total cpu time spent up to now is     9566.0 secs

     total energy              =    -951.87928915 Ry
     Harris-Foulkes estimate   =    -951.87928968 Ry
     estimated scf accuracy    <       0.00009000 Ry

     total magnetization       =    -0.00 Bohr mag/cell
     absolute magnetization    =     0.02 Bohr mag/cell

     iteration # 97     ecut=    70.00 Ry     beta= 0.70
     Davidson diagonalization with overlap
     ethr =  3.70E-09,  avg # of iterations =  2.0

     negative rho (up, down):  1.207E-03 1.587E-02

     total cpu time spent up to now is     9668.0 secs

     total energy              =    -951.87928955 Ry
     Harris-Foulkes estimate   =    -951.87928936 Ry
     estimated scf accuracy    <       0.00008244 Ry

     total magnetization       =     0.00 Bohr mag/cell
     absolute magnetization    =     0.02 Bohr mag/cell

     iteration # 98     ecut=    70.00 Ry     beta= 0.70
     Davidson diagonalization with overlap
     ethr =  3.70E-09,  avg # of iterations =  2.0

     negative rho (up, down):  1.207E-03 1.513E-02

     total cpu time spent up to now is     9777.2 secs

     total energy              =    -951.87929000 Ry
     Harris-Foulkes estimate   =    -951.87928975 Ry
     estimated scf accuracy    <       0.00007589 Ry

     total magnetization       =    -0.00 Bohr mag/cell
     absolute magnetization    =     0.01 Bohr mag/cell

     iteration # 99     ecut=    70.00 Ry     beta= 0.70
     Davidson diagonalization with overlap
     ethr =  3.70E-09,  avg # of iterations =  1.0

     negative rho (up, down):  1.206E-03 1.471E-02

     total cpu time spent up to now is     9882.7 secs

     total energy              =    -951.87929106 Ry
     Harris-Foulkes estimate   =    -951.87929000 Ry
     estimated scf accuracy    <       0.00007234 Ry

     total magnetization       =    -0.00 Bohr mag/cell
     absolute magnetization    =     0.01 Bohr mag/cell

     iteration #100     ecut=    70.00 Ry     beta= 0.70
     Davidson diagonalization with overlap
     ethr =  3.70E-09,  avg # of iterations =  2.0

     negative rho (up, down):  1.208E-03 2.127E-02

     Magnetic moment per site:
     atom:    1    charge:    0.2122    magn:    0.0000    constr:    0.0000
     atom:    2    charge:    0.2125    magn:    0.0000    constr:    0.0000
     atom:    3    charge:    1.7155    magn:   -0.0001    constr:    0.0000
     atom:    4    charge:    1.7152    magn:    0.0001    constr:    0.0000
     atom:    5    charge:    1.7168    magn:   -0.0001    constr:    0.0000
     atom:    6    charge:    1.7146    magn:    0.0001    constr:    0.0000
     atom:    7    charge:    1.7169    magn:   -0.0001    constr:    0.0000
     atom:    8    charge:    1.7153    magn:    0.0001    constr:    0.0000
     atom:    9    charge:    1.7155    magn:   -0.0001    constr:    0.0000
     atom:   10    charge:    1.7177    magn:    0.0000    constr:    0.0000
     atom:   11    charge:    1.7155    magn:   -0.0000    constr:    0.0000
     atom:   12    charge:    1.7177    magn:    0.0000    constr:    0.0000
     atom:   13    charge:    1.7155    magn:   -0.0000    constr:    0.0000
     atom:   14    charge:    1.7175    magn:    0.0000    constr:    0.0000
     atom:   15    charge:    1.7117    magn:   -0.0000    constr:    0.0000
     atom:   16    charge:    1.7114    magn:    0.0001    constr:    0.0000
     atom:   17    charge:    1.7207    magn:   -0.0001    constr:    0.0000
     atom:   18    charge:    1.7114    magn:    0.0001    constr:    0.0000
     atom:   19    charge:    1.7118    magn:   -0.0000    constr:    0.0000
     atom:   20    charge:    1.7176    magn:    0.0000    constr:    0.0000
     atom:   21    charge:    1.7156    magn:   -0.0000    constr:    0.0000
     atom:   22    charge:    1.7177    magn:    0.0000    constr:    0.0000
     atom:   23    charge:    1.7155    magn:   -0.0001    constr:    0.0000
     atom:   24    charge:    1.7152    magn:    0.0001    constr:    0.0000
     atom:   25    charge:    1.7118    magn:   -0.0000    constr:    0.0000
     atom:   26    charge:    1.7112    magn:    0.0001    constr:    0.0000
     atom:   27    charge:    1.8189    magn:   -0.0001    constr:    0.0000
     atom:   28    charge:   13.4061    magn:    0.0000    constr:    0.0000
     atom:   29    charge:    1.8189    magn:   -0.0001    constr:    0.0000
     atom:   30    charge:    1.7114    magn:    0.0001    constr:    0.0000
     atom:   31    charge:    1.7118    magn:   -0.0000    constr:    0.0000
     atom:   32    charge:    1.7152    magn:    0.0001    constr:    0.0000
     atom:   33    charge:    1.7168    magn:   -0.0001    constr:    0.0000
     atom:   34    charge:    1.7154    magn:    0.0001    constr:    0.0000
     atom:   35    charge:    1.7168    magn:   -0.0001    constr:    0.0000
     atom:   36    charge:    1.7146    magn:    0.0001    constr:    0.0000
     atom:   37    charge:    1.7204    magn:   -0.0001    constr:    0.0000
     atom:   38    charge:    1.7117    magn:    0.0001    constr:    0.0000
     atom:   39    charge:    1.8197    magn:   -0.0001    constr:    0.0000
     atom:   40    charge:    1.7114    magn:    0.0001    constr:    0.0000
     atom:   41    charge:    1.7206    magn:   -0.0001    constr:    0.0000
     atom:   42    charge:    1.7146    magn:    0.0001    constr:    0.0000
     atom:   43    charge:    1.7168    magn:   -0.0001    constr:    0.0000
     atom:   44    charge:    1.7154    magn:    0.0001    constr:    0.0000
     atom:   45    charge:    1.7213    magn:   -0.0002    constr:    0.0000
     atom:   46    charge:    1.7154    magn:    0.0001    constr:    0.0000
     atom:   47    charge:    1.7168    magn:   -0.0001    constr:    0.0000
     atom:   48    charge:    1.7152    magn:    0.0001    constr:    0.0000
     atom:   49    charge:    1.7117    magn:   -0.0000    constr:    0.0000
     atom:   50    charge:    1.7176    magn:    0.0000    constr:    0.0000
     atom:   51    charge:    1.7117    magn:   -0.0000    constr:    0.0000
     atom:   52    charge:    1.7152    magn:    0.0001    constr:    0.0000

     total cpu time spent up to now is     9989.5 secs

     total energy              =    -951.87928806 Ry
     Harris-Foulkes estimate   =    -951.87929190 Ry
     estimated scf accuracy    <       0.00016509 Ry

     total magnetization       =    -0.00 Bohr mag/cell
     absolute magnetization    =     0.02 Bohr mag/cell

     iteration #101     ecut=    70.00 Ry     beta= 0.70
     Davidson diagonalization with overlap
     ethr =  3.70E-09,  avg # of iterations =  1.0

     negative rho (up, down):  1.208E-03 2.310E-02

     total cpu time spent up to now is    10092.9 secs

     total energy              =    -951.87928748 Ry
     Harris-Foulkes estimate   =    -951.87928812 Ry
     estimated scf accuracy    <       0.00014980 Ry

     total magnetization       =    -0.00 Bohr mag/cell
     absolute magnetization    =     0.02 Bohr mag/cell

     iteration #102     ecut=    70.00 Ry     beta= 0.70
     Davidson diagonalization with overlap
     ethr =  3.70E-09,  avg # of iterations =  2.0

     negative rho (up, down):  1.208E-03 2.186E-02

     total cpu time spent up to now is    10191.1 secs

     total energy              =    -951.87929468 Ry
     Harris-Foulkes estimate   =    -951.87928777 Ry
     estimated scf accuracy    <       0.00013846 Ry

     total magnetization       =    -0.00 Bohr mag/cell
     absolute magnetization    =     0.02 Bohr mag/cell

     iteration #103     ecut=    70.00 Ry     beta= 0.70
     Davidson diagonalization with overlap
     ethr =  3.70E-09,  avg # of iterations =  3.0

     negative rho (up, down):  1.219E-03 4.382E-02

     total cpu time spent up to now is    10316.2 secs

     total energy              =    -951.87927757 Ry
     Harris-Foulkes estimate   =    -951.87930490 Ry
     estimated scf accuracy    <       0.00087042 Ry

     total magnetization       =     0.00 Bohr mag/cell
     absolute magnetization    =     0.04 Bohr mag/cell

     iteration #104     ecut=    70.00 Ry     beta= 0.70
     Davidson diagonalization with overlap
     ethr =  3.70E-09,  avg # of iterations =  1.5

     negative rho (up, down):  1.220E-03 4.825E-02

     total cpu time spent up to now is    10424.0 secs

     total energy              =    -951.87924527 Ry
     Harris-Foulkes estimate   =    -951.87927779 Ry
     estimated scf accuracy    <       0.00073739 Ry

     total magnetization       =     0.00 Bohr mag/cell
     absolute magnetization    =     0.04 Bohr mag/cell

     iteration #105     ecut=    70.00 Ry     beta= 0.70
     Davidson diagonalization with overlap
     ethr =  3.70E-09,  avg # of iterations =  3.0

     negative rho (up, down):  1.210E-03 2.289E-02

     total cpu time spent up to now is    10557.9 secs

     total energy              =    -951.87928138 Ry
     Harris-Foulkes estimate   =    -951.87925622 Ry
     estimated scf accuracy    <       0.00007001 Ry

     total magnetization       =    -0.00 Bohr mag/cell
     absolute magnetization    =     0.01 Bohr mag/cell

     iteration #106     ecut=    70.00 Ry     beta= 0.70
     Davidson diagonalization with overlap
     ethr =  3.70E-09,  avg # of iterations =  2.5

     negative rho (up, down):  1.203E-03 7.367E-03

     total cpu time spent up to now is    10671.1 secs

     total energy              =    -951.87929304 Ry
     Harris-Foulkes estimate   =    -951.87928388 Ry
     estimated scf accuracy    <       0.00000459 Ry

     total magnetization       =     0.00 Bohr mag/cell
     absolute magnetization    =     0.01 Bohr mag/cell

     iteration #107     ecut=    70.00 Ry     beta= 0.70
     Davidson diagonalization with overlap
     ethr =  2.13E-09,  avg # of iterations =  2.0

     negative rho (up, down):  1.202E-03 3.777E-03

     total cpu time spent up to now is    10778.0 secs

     total energy              =    -951.87929387 Ry
     Harris-Foulkes estimate   =    -951.87929336 Ry
     estimated scf accuracy    <       0.00000674 Ry

     total magnetization       =     0.00 Bohr mag/cell
     absolute magnetization    =     0.01 Bohr mag/cell

     iteration #108     ecut=    70.00 Ry     beta= 0.70
     Davidson diagonalization with overlap
     ethr =  2.13E-09,  avg # of iterations =  1.0

     negative rho (up, down):  1.203E-03 4.812E-03

     total cpu time spent up to now is    10880.9 secs

     total energy              =    -951.87929375 Ry
     Harris-Foulkes estimate   =    -951.87929388 Ry
     estimated scf accuracy    <       0.00000708 Ry

     total magnetization       =    -0.00 Bohr mag/cell
     absolute magnetization    =     0.01 Bohr mag/cell

     iteration #109     ecut=    70.00 Ry     beta= 0.70
     Davidson diagonalization with overlap
     ethr =  2.13E-09,  avg # of iterations =  1.0

     negative rho (up, down):  1.203E-03 5.148E-03

     total cpu time spent up to now is    10985.0 secs

     total energy              =    -951.87929373 Ry
     Harris-Foulkes estimate   =    -951.87929375 Ry
     estimated scf accuracy    <       0.00000686 Ry

     total magnetization       =     0.00 Bohr mag/cell
     absolute magnetization    =     0.01 Bohr mag/cell

     iteration #110     ecut=    70.00 Ry     beta= 0.70
     Davidson diagonalization with overlap
     ethr =  2.13E-09,  avg # of iterations =  1.0

     negative rho (up, down):  1.203E-03 5.658E-03

     total cpu time spent up to now is    11071.5 secs

     total energy              =    -951.87929378 Ry
     Harris-Foulkes estimate   =    -951.87929374 Ry
     estimated scf accuracy    <       0.00000895 Ry

     total magnetization       =    -0.00 Bohr mag/cell
     absolute magnetization    =     0.01 Bohr mag/cell

     iteration #111     ecut=    70.00 Ry     beta= 0.70
     Davidson diagonalization with overlap
     ethr =  2.13E-09,  avg # of iterations =  2.0

     negative rho (up, down):  1.201E-03 7.296E-03

     total cpu time spent up to now is    11162.2 secs

     total energy              =    -951.87929376 Ry
     Harris-Foulkes estimate   =    -951.87929430 Ry
     estimated scf accuracy    <       0.00002686 Ry

     total magnetization       =    -0.00 Bohr mag/cell
     absolute magnetization    =     0.01 Bohr mag/cell

     iteration #112     ecut=    70.00 Ry     beta= 0.70
     Davidson diagonalization with overlap
     ethr =  2.13E-09,  avg # of iterations =  2.0

     negative rho (up, down):  1.202E-03 1.451E-02

     total cpu time spent up to now is    11253.6 secs

     total energy              =    -951.87929150 Ry
     Harris-Foulkes estimate   =    -951.87929445 Ry
     estimated scf accuracy    <       0.00008031 Ry

     total magnetization       =     0.00 Bohr mag/cell
     absolute magnetization    =     0.01 Bohr mag/cell

     iteration #113     ecut=    70.00 Ry     beta= 0.70
     Davidson diagonalization with overlap
     ethr =  2.13E-09,  avg # of iterations =  2.0

     negative rho (up, down):  1.204E-03 1.458E-02

     total cpu time spent up to now is    11340.3 secs

     total energy              =    -951.87928985 Ry
     Harris-Foulkes estimate   =    -951.87929164 Ry
     estimated scf accuracy    <       0.00005697 Ry

     total magnetization       =     0.00 Bohr mag/cell
     absolute magnetization    =     0.01 Bohr mag/cell

     iteration #114     ecut=    70.00 Ry     beta= 0.70
     Davidson diagonalization with overlap
     ethr =  2.13E-09,  avg # of iterations =  2.5

     negative rho (up, down):  1.204E-03 1.159E-02

     total cpu time spent up to now is    11434.2 secs

     total energy              =    -951.87929140 Ry
     Harris-Foulkes estimate   =    -951.87929126 Ry
     estimated scf accuracy    <       0.00005965 Ry

     total magnetization       =     0.00 Bohr mag/cell
     absolute magnetization    =     0.01 Bohr mag/cell

     iteration #115     ecut=    70.00 Ry     beta= 0.70
     Davidson diagonalization with overlap
     ethr =  2.13E-09,  avg # of iterations =  2.0

     negative rho (up, down):  1.203E-03 1.011E-02

     total cpu time spent up to now is    11521.5 secs

     total energy              =    -951.87929130 Ry
     Harris-Foulkes estimate   =    -951.87929153 Ry
     estimated scf accuracy    <       0.00002702 Ry

     total magnetization       =     0.00 Bohr mag/cell
     absolute magnetization    =     0.01 Bohr mag/cell

     iteration #116     ecut=    70.00 Ry     beta= 0.70
     Davidson diagonalization with overlap
     ethr =  2.13E-09,  avg # of iterations =  2.0

     negative rho (up, down):  1.200E-03 6.196E-05

     Magnetic moment per site:
     atom:    1    charge:    0.2122    magn:   -0.0000    constr:    0.0000
     atom:    2    charge:    0.2125    magn:    0.0000    constr:    0.0000
     atom:    3    charge:    1.7155    magn:   -0.0000    constr:    0.0000
     atom:    4    charge:    1.7153    magn:    0.0000    constr:    0.0000
     atom:    5    charge:    1.7168    magn:   -0.0000    constr:    0.0000
     atom:    6    charge:    1.7146    magn:    0.0000    constr:    0.0000
     atom:    7    charge:    1.7169    magn:   -0.0000    constr:    0.0000
     atom:    8    charge:    1.7152    magn:    0.0000    constr:    0.0000
     atom:    9    charge:    1.7155    magn:   -0.0000    constr:    0.0000
     atom:   10    charge:    1.7177    magn:    0.0000    constr:    0.0000
     atom:   11    charge:    1.7155    magn:   -0.0000    constr:    0.0000
     atom:   12    charge:    1.7177    magn:    0.0000    constr:    0.0000
     atom:   13    charge:    1.7156    magn:   -0.0000    constr:    0.0000
     atom:   14    charge:    1.7175    magn:    0.0000    constr:    0.0000
     atom:   15    charge:    1.7118    magn:   -0.0000    constr:    0.0000
     atom:   16    charge:    1.7114    magn:    0.0000    constr:    0.0000
     atom:   17    charge:    1.7208    magn:   -0.0000    constr:    0.0000
     atom:   18    charge:    1.7114    magn:    0.0000    constr:    0.0000
     atom:   19    charge:    1.7118    magn:   -0.0000    constr:    0.0000
     atom:   20    charge:    1.7176    magn:    0.0000    constr:    0.0000
     atom:   21    charge:    1.7156    magn:   -0.0000    constr:    0.0000
     atom:   22    charge:    1.7177    magn:    0.0000    constr:    0.0000
     atom:   23    charge:    1.7155    magn:   -0.0000    constr:    0.0000
     atom:   24    charge:    1.7152    magn:    0.0000    constr:    0.0000
     atom:   25    charge:    1.7118    magn:   -0.0000    constr:    0.0000
     atom:   26    charge:    1.7112    magn:    0.0000    constr:    0.0000
     atom:   27    charge:    1.8190    magn:   -0.0000    constr:    0.0000
     atom:   28    charge:   13.4061    magn:   -0.0000    constr:    0.0000
     atom:   29    charge:    1.8188    magn:   -0.0000    constr:    0.0000
     atom:   30    charge:    1.7113    magn:    0.0000    constr:    0.0000
     atom:   31    charge:    1.7118    magn:   -0.0000    constr:    0.0000
     atom:   32    charge:    1.7152    magn:    0.0000    constr:    0.0000
     atom:   33    charge:    1.7168    magn:   -0.0000    constr:    0.0000
     atom:   34    charge:    1.7154    magn:    0.0000    constr:    0.0000
     atom:   35    charge:    1.7168    magn:   -0.0000    constr:    0.0000
     atom:   36    charge:    1.7147    magn:    0.0000    constr:    0.0000
     atom:   37    charge:    1.7204    magn:   -0.0000    constr:    0.0000
     atom:   38    charge:    1.7117    magn:    0.0000    constr:    0.0000
     atom:   39    charge:    1.8196    magn:   -0.0000    constr:    0.0000
     atom:   40    charge:    1.7114    magn:    0.0000    constr:    0.0000
     atom:   41    charge:    1.7206    magn:   -0.0000    constr:    0.0000
     atom:   42    charge:    1.7146    magn:    0.0000    constr:    0.0000
     atom:   43    charge:    1.7168    magn:   -0.0000    constr:    0.0000
     atom:   44    charge:    1.7154    magn:    0.0000    constr:    0.0000
     atom:   45    charge:    1.7213    magn:   -0.0000    constr:    0.0000
     atom:   46    charge:    1.7154    magn:    0.0000    constr:    0.0000
     atom:   47    charge:    1.7168    magn:   -0.0000    constr:    0.0000
     atom:   48    charge:    1.7153    magn:    0.0000    constr:    0.0000
     atom:   49    charge:    1.7117    magn:   -0.0000    constr:    0.0000
     atom:   50    charge:    1.7176    magn:    0.0000    constr:    0.0000
     atom:   51    charge:    1.7117    magn:   -0.0000    constr:    0.0000
     atom:   52    charge:    1.7152    magn:    0.0000    constr:    0.0000

     total cpu time spent up to now is    11613.0 secs

     End of self-consistent calculation

 ------ SPIN UP ------------


          k = 0.0000 0.0000 0.0000 ( 87777 PWs)   bands (ev):

  -107.8764 -69.0510 -69.0427 -66.9588 -19.8158 -18.9966 -18.9946 -18.8794
   -18.8783 -18.7939 -18.7229 -17.1512 -17.1510 -17.1183 -17.0695 -17.0672
   -16.7425 -16.3008 -16.3005 -16.1554 -16.1548 -16.1423 -15.6579 -14.2968
   -14.2961 -14.1384 -14.0072 -14.0059 -13.5029 -13.1181 -13.1178 -13.0665
   -12.8899 -12.8886 -12.4892 -12.0616 -12.0609 -11.7016 -11.5571 -11.5569
   -10.9212 -10.4129 -10.4124  -9.5631  -9.3551  -9.3544  -9.2164  -9.2015
    -9.2014  -9.1867  -8.9403  -8.9398  -8.5802  -8.5793  -8.4400  -7.9833
    -7.8903  -7.8599  -7.8236  -7.6513  -7.5303  -7.5289  -7.4358  -7.4357
    -7.0510  -6.8333  -6.8129  -6.8124  -6.7387  -6.6091  -6.6073  -6.5453
    -6.5409  -6.5402  -6.5078  -6.4234  -6.4109  -6.4070  -6.2777  -6.2744
    -6.2532  -5.5358  -5.5352  -5.0196  -4.9394  -4.8311  -4.8303  -4.7491
    -4.7083  -4.7071  -4.4011  -4.3877  -4.3849  -3.8284  -3.8270  -3.7557
    -3.7483  -3.7481  -3.6071  -3.4067  -3.4049  -3.2946  -1.8827  -1.7979
    -1.7966  -1.5797  -1.5771  -1.1326   0.1288   0.1319   0.9128   0.9694
     0.9721   1.2221   1.2236   1.5630   2.5060   2.8077   2.8122   2.8625
     3.0441   3.0477   3.3770   3.5294   3.6198   3.7410   3.7457   3.7717
     3.9383   4.2635

     occupation numbers 
     1.0000   1.0000   1.0000   1.0000   1.0000   1.0000   1.0000   1.0000
     1.0000   1.0000   1.0000   1.0000   1.0000   1.0000   1.0000   1.0000
     1.0000   1.0000   1.0000   1.0000   1.0000   1.0000   1.0000   1.0000
     1.0000   1.0000   1.0000   1.0000   1.0000   1.0000   1.0000   1.0000
     1.0000   1.0000   1.0000   1.0000   1.0000   1.0000   1.0000   1.0000
     1.0000   1.0000   1.0000   1.0000   1.0000   1.0000   1.0000   1.0000
     1.0000   1.0000   1.0000   1.0000   1.0000   1.0000   1.0000   1.0000
     1.0000   1.0000   1.0000   1.0000   1.0000   1.0000   1.0000   1.0000
     1.0000   1.0000   1.0000   1.0000   1.0000   1.0000   1.0000   1.0000
     1.0000   1.0000   1.0000   1.0000   1.0000   1.0000   1.0000   1.0000
     1.0000   1.0000   1.0000   1.0000   1.0000   1.0000   1.0000   1.0000
     1.0000   1.0000   1.0000   1.0000   1.0000   1.0000   1.0000   1.0000
     1.0000   1.0000   1.0000   1.0000   1.0000   1.0000   1.0000   1.0000
     1.0000   1.0000   1.0000   1.0000   0.0000   0.0000   0.0000   0.0000
     0.0000   0.0000   0.0000   0.0000   0.0000   0.0000   0.0000   0.0000
     0.0000   0.0000   0.0000   0.0000   0.0000   0.0000   0.0000   0.0000
     0.0000   0.0000

 ------ SPIN DOWN ----------


          k = 0.0000 0.0000 0.0000 ( 87777 PWs)   bands (ev):

  -107.8764 -69.0510 -69.0427 -66.9588 -19.8157 -18.9966 -18.9946 -18.8794
   -18.8783 -18.7939 -18.7228 -17.1512 -17.1510 -17.1183 -17.0695 -17.0672
   -16.7425 -16.3008 -16.3005 -16.1554 -16.1548 -16.1423 -15.6579 -14.2968
   -14.2961 -14.1384 -14.0071 -14.0059 -13.5030 -13.1181 -13.1178 -13.0666
   -12.8899 -12.8886 -12.4892 -12.0616 -12.0609 -11.7016 -11.5571 -11.5569
   -10.9212 -10.4129 -10.4124  -9.5630  -9.3551  -9.3544  -9.2164  -9.2015
    -9.2014  -9.1867  -8.9403  -8.9398  -8.5802  -8.5793  -8.4400  -7.9834
    -7.8903  -7.8599  -7.8236  -7.6513  -7.5303  -7.5289  -7.4358  -7.4357
    -7.0510  -6.8333  -6.8129  -6.8124  -6.7387  -6.6091  -6.6073  -6.5453
    -6.5409  -6.5402  -6.5078  -6.4234  -6.4109  -6.4070  -6.2777  -6.2744
    -6.2532  -5.5358  -5.5352  -5.0196  -4.9394  -4.8311  -4.8303  -4.7491
    -4.7083  -4.7071  -4.4012  -4.3877  -4.3849  -3.8284  -3.8270  -3.7557
    -3.7483  -3.7481  -3.6071  -3.4067  -3.4049  -3.2946  -1.8827  -1.7978
    -1.7966  -1.5797  -1.5770  -1.1328   0.1288   0.1318   0.9128   0.9694
     0.9721   1.2221   1.2236   1.5630   2.5062   2.8077   2.8122   2.8624
     3.0441   3.0477   3.3771   3.5295   3.6201   3.7411   3.7460   3.7720
     3.9384   4.2636

     occupation numbers 
     1.0000   1.0000   1.0000   1.0000   1.0000   1.0000   1.0000   1.0000
     1.0000   1.0000   1.0000   1.0000   1.0000   1.0000   1.0000   1.0000
     1.0000   1.0000   1.0000   1.0000   1.0000   1.0000   1.0000   1.0000
     1.0000   1.0000   1.0000   1.0000   1.0000   1.0000   1.0000   1.0000
     1.0000   1.0000   1.0000   1.0000   1.0000   1.0000   1.0000   1.0000
     1.0000   1.0000   1.0000   1.0000   1.0000   1.0000   1.0000   1.0000
     1.0000   1.0000   1.0000   1.0000   1.0000   1.0000   1.0000   1.0000
     1.0000   1.0000   1.0000   1.0000   1.0000   1.0000   1.0000   1.0000
     1.0000   1.0000   1.0000   1.0000   1.0000   1.0000   1.0000   1.0000
     1.0000   1.0000   1.0000   1.0000   1.0000   1.0000   1.0000   1.0000
     1.0000   1.0000   1.0000   1.0000   1.0000   1.0000   1.0000   1.0000
     1.0000   1.0000   1.0000   1.0000   1.0000   1.0000   1.0000   1.0000
     1.0000   1.0000   1.0000   1.0000   1.0000   1.0000   1.0000   1.0000
     1.0000   1.0000   1.0000   1.0000   0.0000   0.0000   0.0000   0.0000
     0.0000   0.0000   0.0000   0.0000   0.0000   0.0000   0.0000   0.0000
     0.0000   0.0000   0.0000   0.0000   0.0000   0.0000   0.0000   0.0000
     0.0000   0.0000

     the Fermi energy is    -0.9683 ev

!    total energy              =    -951.87929392 Ry
     Harris-Foulkes estimate   =    -951.87929187 Ry
     estimated scf accuracy    <       0.00000082 Ry

     The total energy is the sum of the following terms:

     one-electron contribution =   -2989.77863691 Ry
     hartree contribution      =    1537.64936839 Ry
     xc contribution           =    -265.75011456 Ry
     ewald contribution        =     766.00008916 Ry
     smearing contrib. (-TS)   =       0.00000000 Ry

     total magnetization       =     0.00 Bohr mag/cell
     absolute magnetization    =     0.00 Bohr mag/cell

     convergence has been achieved in 116 iterations

     Writing output data file cobre-baricentro-distance-2.6.save/

     init_run     :     66.37s CPU     67.55s WALL (       1 calls)
     electrons    :  11333.46s CPU  11544.49s WALL (       1 calls)

     Called by init_run:
     wfcinit      :     35.54s CPU     35.83s WALL (       1 calls)
     wfcinit:atom :      0.04s CPU      0.07s WALL (       2 calls)
     wfcinit:wfcr :     35.15s CPU     35.36s WALL (       2 calls)
     potinit      :     12.74s CPU     13.14s WALL (       1 calls)
     hinit0       :     10.53s CPU     10.53s WALL (       1 calls)

     Called by electrons:
     c_bands      :   7170.64s CPU   7211.43s WALL (     116 calls)
     sum_band     :   2408.48s CPU   2478.70s WALL (     116 calls)
     v_of_rho     :    825.00s CPU    862.27s WALL (     117 calls)
     v_h          :      8.52s CPU      8.79s WALL (     117 calls)
     v_xc         :    816.48s CPU    853.48s WALL (     117 calls)
     newd         :    862.51s CPU    924.77s WALL (     117 calls)
     mix_rho      :     54.12s CPU     54.80s WALL (     116 calls)

     Called by c_bands:
     init_us_2    :     21.05s CPU     21.12s WALL (     466 calls)
     cegterg      :   7116.21s CPU   7156.71s WALL (     232 calls)

     Called by sum_band:
     sum_band:bec :      0.19s CPU      0.19s WALL (     232 calls)
     addusdens    :   1530.65s CPU   1595.52s WALL (     116 calls)

     Called by *egterg:
     h_psi        :   3583.32s CPU   3610.85s WALL (     835 calls)
     s_psi        :   1162.47s CPU   1163.24s WALL (     835 calls)
     g_psi        :      4.37s CPU      4.38s WALL (     601 calls)
     cdiaghg      :     61.30s CPU     61.34s WALL (     833 calls)
     cegterg:over :    976.52s CPU    977.16s WALL (     601 calls)
     cegterg:upda :    573.31s CPU    576.74s WALL (     601 calls)
     cegterg:last :    406.61s CPU    406.81s WALL (     233 calls)

     Called by h_psi:
     h_psi:pot    :   3579.18s CPU   3601.61s WALL (     835 calls)
     h_psi:calbec :   1166.21s CPU   1166.96s WALL (     835 calls)
     vloc_psi     :   1252.51s CPU   1273.61s WALL (     835 calls)
     add_vuspsi   :   1160.44s CPU   1161.02s WALL (     835 calls)

     General routines
     calbec       :   1673.71s CPU   1674.78s WALL (    1067 calls)
     fft          :    480.91s CPU    494.82s WALL (    8769 calls)
     ffts         :      8.46s CPU      8.75s WALL (     466 calls)
     fftw         :   1358.77s CPU   1382.00s WALL (  169592 calls)
     interpolate  :     19.03s CPU     19.57s WALL (     234 calls)

     Parallel routines
     fft_scatt_xy :    337.80s CPU    342.01s WALL (  178827 calls)
     fft_scatt_yz :    623.01s CPU    649.60s WALL (  178827 calls)

     PWSCF        :      3h10m CPU      3h13m WALL


   This run was terminated on:  11:29:50   6Jan2023            

=------------------------------------------------------------------------------=
   JOB DONE.
=------------------------------------------------------------------------------=
