
     Program PWSCF v.6.4.1 starts on 30Aug2022 at 17:40:28 

     This program is part of the open-source Quantum ESPRESSO suite
     for quantum simulation of materials; please cite
         "P. Giannozzi et al., J. Phys.:Condens. Matter 21 395502 (2009);
         "P. Giannozzi et al., J. Phys.:Condens. Matter 29 465901 (2017);
          URL http://www.quantum-espresso.org", 
     in publications or presentations arising from this work. More details at
     http://www.quantum-espresso.org/quote

     Parallel version (MPI), running on     5 processors

     MPI processes distributed on     1 nodes
     R & G space division:  proc/nbgrp/npool/nimage =       5
     Reading input from distance-3.0.in

     Current dimensions of program PWSCF are:
     Max number of different atomic species (ntypx) = 10
     Max number of k-points (npk) =  40000
     Max angular momentum in pseudopotentials (lmaxx) =  3

     IMPORTANT: XC functional enforced from input :
     Exchange-correlation      = RVV10 ( 1  4 13  4 3 0)
     Any further DFT definition will be discarded
     Please, verify this is what you really want

               file H.pbe-rrkjus.UPF: wavefunction(s)  1S renormalized
               file V.pbe-spnl-rrkjus_psl.1.0.0.UPF: wavefunction(s)  3P 3D renormalized

     Subspace diagonalization in iterative solution of the eigenvalue problem:
     a serial algorithm will be used


     Parallelization info
     --------------------
     sticks:   dense  smooth     PW     G-vecs:    dense   smooth      PW
     Min        3662    2095    520               325198   140515   17555
     Max        3663    2096    525               325201   140518   17556
     Sum       18313   10477   2611              1626001   702581   87777



     bravais-lattice index     =            4
     lattice parameter (alat)  =      23.2937  a.u.
     unit-cell volume          =    8879.8548 (a.u.)^3
     number of atoms/cell      =           52
     number of atomic types    =            3
     number of electrons       =       211.00
     number of Kohn-Sham states=          127
     kinetic-energy cutoff     =      70.0000  Ry
     charge density cutoff     =     490.0000  Ry
     convergence threshold     =      1.0E-06
     mixing beta               =       0.7000
     number of iterations used =            8  plain     mixing
     Exchange-correlation      = RVV10 ( 1  4 13  4 3 0)

     celldm(1)=  23.293684  celldm(2)=   0.000000  celldm(3)=   0.811261
     celldm(4)=   0.000000  celldm(5)=   0.000000  celldm(6)=   0.000000

     crystal axes: (cart. coord. in units of alat)
               a(1) = (   1.000000   0.000000   0.000000 )  
               a(2) = (  -0.500000   0.866025   0.000000 )  
               a(3) = (   0.000000   0.000000   0.811261 )  

     reciprocal axes: (cart. coord. in units 2 pi/alat)
               b(1) = (  1.000000  0.577350 -0.000000 )  
               b(2) = (  0.000000  1.154701  0.000000 )  
               b(3) = (  0.000000 -0.000000  1.232649 )  


     PseudoPot. # 1 for H  read from file:
     /home/cristian/Escritorio/Proyecto_Grafeno/pseudopotenciales/H.pbe-rrkjus.UPF
     MD5 check sum: 7cc9d459525c9a0585f487a71c3c9563
     Pseudo is Ultrasoft, Zval =  1.0
     Generated by new atomic code, or converted to UPF format
     Using radial grid of 1061 points,  2 beta functions with: 
                l(1) =   0
                l(2) =   0
     Q(r) pseudized with 0 coefficients 


     PseudoPot. # 2 for C  read from file:
     /home/cristian/Escritorio/Proyecto_Grafeno/pseudopotenciales/C.pbe-n-rrkjus_psl.1.0.0.UPF
     MD5 check sum: 1fdd950c42eb37d8afe3dd2f8d12311e
     Pseudo is Ultrasoft + core correction, Zval =  4.0
     Generated using "atomic" code by A. Dal Corso v.6.3MaX
     Using radial grid of 1073 points,  4 beta functions with: 
                l(1) =   0
                l(2) =   0
                l(3) =   1
                l(4) =   1
     Q(r) pseudized with 0 coefficients 


     PseudoPot. # 3 for V  read from file:
     /home/cristian/Escritorio/Proyecto_Grafeno/pseudopotenciales/V.pbe-spnl-rrkjus_psl.1.0.0.UPF
     MD5 check sum: 79b3eb63147daf0b665d9f1bcc691206
     Pseudo is Ultrasoft + core correction, Zval = 13.0
     Generated using "atomic" code by A. Dal Corso v.6.2.2
     Using radial grid of 1181 points,  6 beta functions with: 
                l(1) =   0
                l(2) =   0
                l(3) =   1
                l(4) =   1
                l(5) =   2
                l(6) =   2
     Q(r) pseudized with 0 coefficients 


     vdW kernel table read from file rVV10_kernel_table
     MD5 check sum: b8e2538accc0c0b3206b45ba4daaba6c

     atomic species   valence    mass     pseudopotential
        H              1.00     1.00794     H ( 1.00)
        C              4.00    12.01070     C ( 1.00)
        V             13.00    50.94150     V ( 1.00)

     No symmetry found


                                    s                        frac. trans.

      isym =  1     identity                                     

 cryst.   s( 1) = (     1          0          0      )
                  (     0          1          0      )
                  (     0          0          1      )

 cart.    s( 1) = (  1.0000000  0.0000000  0.0000000 )
                  (  0.0000000  1.0000000  0.0000000 )
                  (  0.0000000  0.0000000  1.0000000 )


     point group C_1 (1)    
     there are  1 classes
     the character table:

       E    
A      1.00

     the symmetry operations in each class and the name of the first element:

     E        1
          identity                                               

   Cartesian axes

     site n.     atom                  positions (alat units)
         1           H   tau(   1) = (   0.1694937   0.4618802   0.2433783  )
         2           H   tau(   2) = (   0.2305063   0.4618802   0.2433783  )
         3           C   tau(   3) = (   0.0000000   0.0000000   0.0000000  )
         4           C   tau(   4) = (   0.0000000   0.1154701   0.0000000  )
         5           C   tau(   5) = (  -0.1000000   0.1732051   0.0000000  )
         6           C   tau(   6) = (  -0.1000000   0.2886751   0.0000000  )
         7           C   tau(   7) = (  -0.2000000   0.3464102   0.0000000  )
         8           C   tau(   8) = (  -0.2000000   0.4618802   0.0000000  )
         9           C   tau(   9) = (  -0.3000000   0.5196152   0.0000000  )
        10           C   tau(  10) = (  -0.3000000   0.6350853   0.0000000  )
        11           C   tau(  11) = (  -0.4000000   0.6928203   0.0000000  )
        12           C   tau(  12) = (  -0.4000000   0.8082904   0.0000000  )
        13           C   tau(  13) = (   0.2000000   0.0000000   0.0000000  )
        14           C   tau(  14) = (   0.2000000   0.1154701   0.0000000  )
        15           C   tau(  15) = (   0.1000000   0.1732051   0.0000000  )
        16           C   tau(  16) = (   0.1000000   0.2886751   0.0000000  )
        17           C   tau(  17) = (   0.0000000   0.3464102   0.0000000  )
        18           C   tau(  18) = (   0.0000000   0.4618802   0.0000000  )
        19           C   tau(  19) = (  -0.1000000   0.5196152   0.0000000  )
        20           C   tau(  20) = (  -0.1000000   0.6350853   0.0000000  )
        21           C   tau(  21) = (  -0.2000000   0.6928203   0.0000000  )
        22           C   tau(  22) = (  -0.2000000   0.8082904   0.0000000  )
        23           C   tau(  23) = (   0.4000000   0.0000000   0.0000000  )
        24           C   tau(  24) = (   0.4000000   0.1154701   0.0000000  )
        25           C   tau(  25) = (   0.3000000   0.1732051   0.0000000  )
        26           C   tau(  26) = (   0.3000000   0.2886751   0.0000000  )
        27           C   tau(  27) = (   0.2000000   0.3464102   0.0000000  )
        28           V   tau(  28) = (   0.2000000   0.4618802   0.0000000  )
        29           C   tau(  29) = (   0.1000000   0.5196152   0.0000000  )
        30           C   tau(  30) = (   0.1000000   0.6350853   0.0000000  )
        31           C   tau(  31) = (   0.0000000   0.6928203   0.0000000  )
        32           C   tau(  32) = (   0.0000000   0.8082904   0.0000000  )
        33           C   tau(  33) = (   0.6000000   0.0000000   0.0000000  )
        34           C   tau(  34) = (   0.6000000   0.1154701   0.0000000  )
        35           C   tau(  35) = (   0.5000000   0.1732051   0.0000000  )
        36           C   tau(  36) = (   0.5000000   0.2886751   0.0000000  )
        37           C   tau(  37) = (   0.4000000   0.3464102   0.0000000  )
        38           C   tau(  38) = (   0.4000000   0.4618802   0.0000000  )
        39           C   tau(  39) = (   0.3000000   0.5196152   0.0000000  )
        40           C   tau(  40) = (   0.3000000   0.6350853   0.0000000  )
        41           C   tau(  41) = (   0.2000000   0.6928203   0.0000000  )
        42           C   tau(  42) = (   0.2000000   0.8082904   0.0000000  )
        43           C   tau(  43) = (   0.8000000   0.0000000   0.0000000  )
        44           C   tau(  44) = (   0.8000000   0.1154701   0.0000000  )
        45           C   tau(  45) = (   0.7000000   0.1732051   0.0000000  )
        46           C   tau(  46) = (   0.7000000   0.2886751   0.0000000  )
        47           C   tau(  47) = (   0.6000000   0.3464102   0.0000000  )
        48           C   tau(  48) = (   0.6000000   0.4618802   0.0000000  )
        49           C   tau(  49) = (   0.5000000   0.5196152   0.0000000  )
        50           C   tau(  50) = (   0.5000000   0.6350853   0.0000000  )
        51           C   tau(  51) = (   0.4000000   0.6928203   0.0000000  )
        52           C   tau(  52) = (   0.4000000   0.8082904   0.0000000  )

   Crystallographic axes

     site n.     atom                  positions (cryst. coord.)
         1           H   tau(   1) = (  0.4361603  0.5333333  0.3000000  )
         2           H   tau(   2) = (  0.4971730  0.5333333  0.3000000  )
         3           C   tau(   3) = (  0.0000000  0.0000000  0.0000000  )
         4           C   tau(   4) = (  0.0666667  0.1333333  0.0000000  )
         5           C   tau(   5) = (  0.0000000  0.2000000  0.0000000  )
         6           C   tau(   6) = (  0.0666667  0.3333333  0.0000000  )
         7           C   tau(   7) = (  0.0000000  0.4000000  0.0000000  )
         8           C   tau(   8) = (  0.0666667  0.5333333  0.0000000  )
         9           C   tau(   9) = (  0.0000000  0.6000000  0.0000000  )
        10           C   tau(  10) = (  0.0666667  0.7333333  0.0000000  )
        11           C   tau(  11) = (  0.0000000  0.8000000  0.0000000  )
        12           C   tau(  12) = (  0.0666667  0.9333333  0.0000000  )
        13           C   tau(  13) = (  0.2000000  0.0000000  0.0000000  )
        14           C   tau(  14) = (  0.2666667  0.1333333  0.0000000  )
        15           C   tau(  15) = (  0.2000000  0.2000000  0.0000000  )
        16           C   tau(  16) = (  0.2666667  0.3333333  0.0000000  )
        17           C   tau(  17) = (  0.2000000  0.4000000  0.0000000  )
        18           C   tau(  18) = (  0.2666667  0.5333333  0.0000000  )
        19           C   tau(  19) = (  0.2000000  0.6000000  0.0000000  )
        20           C   tau(  20) = (  0.2666667  0.7333333  0.0000000  )
        21           C   tau(  21) = (  0.2000000  0.8000000  0.0000000  )
        22           C   tau(  22) = (  0.2666667  0.9333333  0.0000000  )
        23           C   tau(  23) = (  0.4000000  0.0000000  0.0000000  )
        24           C   tau(  24) = (  0.4666667  0.1333333  0.0000000  )
        25           C   tau(  25) = (  0.4000000  0.2000000  0.0000000  )
        26           C   tau(  26) = (  0.4666667  0.3333333  0.0000000  )
        27           C   tau(  27) = (  0.4000000  0.4000000  0.0000000  )
        28           V   tau(  28) = (  0.4666667  0.5333333  0.0000000  )
        29           C   tau(  29) = (  0.4000000  0.6000000  0.0000000  )
        30           C   tau(  30) = (  0.4666667  0.7333333  0.0000000  )
        31           C   tau(  31) = (  0.4000000  0.8000000  0.0000000  )
        32           C   tau(  32) = (  0.4666667  0.9333333  0.0000000  )
        33           C   tau(  33) = (  0.6000000  0.0000000  0.0000000  )
        34           C   tau(  34) = (  0.6666667  0.1333333  0.0000000  )
        35           C   tau(  35) = (  0.6000000  0.2000000  0.0000000  )
        36           C   tau(  36) = (  0.6666667  0.3333333  0.0000000  )
        37           C   tau(  37) = (  0.6000000  0.4000000  0.0000000  )
        38           C   tau(  38) = (  0.6666667  0.5333333  0.0000000  )
        39           C   tau(  39) = (  0.6000000  0.6000000  0.0000000  )
        40           C   tau(  40) = (  0.6666667  0.7333333  0.0000000  )
        41           C   tau(  41) = (  0.6000000  0.8000000  0.0000000  )
        42           C   tau(  42) = (  0.6666667  0.9333333  0.0000000  )
        43           C   tau(  43) = (  0.8000000  0.0000000  0.0000000  )
        44           C   tau(  44) = (  0.8666667  0.1333333  0.0000000  )
        45           C   tau(  45) = (  0.8000000  0.2000000  0.0000000  )
        46           C   tau(  46) = (  0.8666667  0.3333333  0.0000000  )
        47           C   tau(  47) = (  0.8000000  0.4000000  0.0000000  )
        48           C   tau(  48) = (  0.8666667  0.5333333  0.0000000  )
        49           C   tau(  49) = (  0.8000000  0.6000000  0.0000000  )
        50           C   tau(  50) = (  0.8666667  0.7333333  0.0000000  )
        51           C   tau(  51) = (  0.8000000  0.8000000  0.0000000  )
        52           C   tau(  52) = (  0.8666667  0.9333333  0.0000000  )

     number of k points=     1  Marzari-Vanderbilt smearing, width (Ry)=  0.0010
                       cart. coord. in units 2pi/alat
        k(    1) = (   0.0000000   0.0000000   0.0000000), wk =   2.0000000

                       cryst. coord.
        k(    1) = (   0.0000000   0.0000000   0.0000000), wk =   2.0000000

     Dense  grid:  1626001 G-vectors     FFT dimensions: ( 180, 180, 135)

     Smooth grid:   702581 G-vectors     FFT dimensions: ( 125, 125, 108)

     Dynamical RAM for                 wfc:      34.04 MB

     Dynamical RAM for     wfc (w. buffer):      34.04 MB

     Dynamical RAM for           str. fact:      14.89 MB

     Dynamical RAM for           local pot:       0.00 MB

     Dynamical RAM for          nlocal pot:     110.95 MB

     Dynamical RAM for                qrad:      19.73 MB

     Dynamical RAM for          rho,v,vnew:      34.91 MB

     Dynamical RAM for               rhoin:      11.64 MB

     Dynamical RAM for            rho*nmix:      79.39 MB

     Dynamical RAM for           G-vectors:      19.68 MB

     Dynamical RAM for          h,s,v(r/c):      11.81 MB

     Dynamical RAM for          <psi|beta>:       0.80 MB

     Dynamical RAM for                 psi:     136.15 MB

     Dynamical RAM for                hpsi:     136.15 MB

     Dynamical RAM for                spsi:     136.15 MB

     Dynamical RAM for      wfcinit/wfcrot:     112.48 MB

     Dynamical RAM for           addusdens:    1166.11 MB

     Estimated static dynamical RAM per process >     378.45 MB

     Estimated max dynamical RAM per process >       1.51 GB

     Estimated total dynamical RAM >       7.54 GB

     Check: negative core charge=   -0.000002

     Initial potential from superposition of free atoms

     starting charge  210.80465, renormalised to  211.00000

     negative rho (up, down):  1.127E-04 0.000E+00


---------------------------------------------------------------------------------
Carrying out rVV10 run using the following parameters:
Nqs =      20    Nr_points =    1024   r_max =   100.000
b_value =  6.30000    beta =  0.00901
     q_mesh =  0.00010000  0.00030000  0.00058939  0.00100810
               0.00161396  0.00249058  0.00375900  0.00559430
               0.00824984  0.01209221  0.01765183  0.02569619
               0.03733578  0.05417739  0.07854596  0.11380545
               0.16482331  0.23864234  0.34545298  0.50000000

Gradients computed in Reciprocal space

---------------------------------------------------------------------------------


     Starting wfcs are  208 randomized atomic wfcs

     total cpu time spent up to now is       54.1 secs

     Self-consistent Calculation

     iteration #  1     ecut=    70.00 Ry     beta= 0.70
     Davidson diagonalization with overlap
     ethr =  1.00E-02,  avg # of iterations =  3.0

     negative rho (up, down):  1.660E-03 0.000E+00

     total cpu time spent up to now is      124.3 secs

     total energy              =    -754.53499443 Ry
     Harris-Foulkes estimate   =    -760.50110508 Ry
     estimated scf accuracy    <       8.76544416 Ry

     iteration #  2     ecut=    70.00 Ry     beta= 0.70
     Davidson diagonalization with overlap
     ethr =  4.15E-03,  avg # of iterations =  8.0

     negative rho (up, down):  1.725E-02 0.000E+00

     total cpu time spent up to now is      195.4 secs

     total energy              =    -748.20165705 Ry
     Harris-Foulkes estimate   =    -764.40390582 Ry
     estimated scf accuracy    <      55.49884143 Ry

     iteration #  3     ecut=    70.00 Ry     beta= 0.70
     Davidson diagonalization with overlap
     ethr =  4.15E-03,  avg # of iterations =  5.0

     negative rho (up, down):  2.043E-03 0.000E+00

     total cpu time spent up to now is      298.6 secs

     total energy              =    -755.55412554 Ry
     Harris-Foulkes estimate   =    -758.83707713 Ry
     estimated scf accuracy    <      15.74302734 Ry

     iteration #  4     ecut=    70.00 Ry     beta= 0.70
     Davidson diagonalization with overlap
     ethr =  4.15E-03,  avg # of iterations =  4.0

     negative rho (up, down):  4.765E-02 0.000E+00

     total cpu time spent up to now is      353.5 secs

     total energy              =    -757.12568527 Ry
     Harris-Foulkes estimate   =    -757.70111750 Ry
     estimated scf accuracy    <       1.66198846 Ry

     iteration #  5     ecut=    70.00 Ry     beta= 0.70
     Davidson diagonalization with overlap
     ethr =  7.88E-04,  avg # of iterations =  6.0

     negative rho (up, down):  6.336E-02 0.000E+00

     total cpu time spent up to now is      412.4 secs

     total energy              =    -757.27707426 Ry
     Harris-Foulkes estimate   =    -757.33997587 Ry
     estimated scf accuracy    <       0.23549674 Ry

     iteration #  6     ecut=    70.00 Ry     beta= 0.70
     Davidson diagonalization with overlap
     ethr =  1.12E-04,  avg # of iterations =  3.0

     negative rho (up, down):  5.778E-02 0.000E+00

     total cpu time spent up to now is      471.8 secs

     total energy              =    -757.29112684 Ry
     Harris-Foulkes estimate   =    -757.32042084 Ry
     estimated scf accuracy    <       0.15552976 Ry

     iteration #  7     ecut=    70.00 Ry     beta= 0.70
     Davidson diagonalization with overlap
     ethr =  7.37E-05,  avg # of iterations =  3.0

     negative rho (up, down):  4.402E-02 0.000E+00

     total cpu time spent up to now is      526.4 secs

     total energy              =    -757.30409834 Ry
     Harris-Foulkes estimate   =    -757.31725990 Ry
     estimated scf accuracy    <       0.10271332 Ry

     iteration #  8     ecut=    70.00 Ry     beta= 0.70
     Davidson diagonalization with overlap
     ethr =  4.87E-05,  avg # of iterations =  3.0

     negative rho (up, down):  2.580E-02 0.000E+00

     total cpu time spent up to now is      580.5 secs

     total energy              =    -757.32333525 Ry
     Harris-Foulkes estimate   =    -757.31689268 Ry
     estimated scf accuracy    <       0.03415004 Ry

     iteration #  9     ecut=    70.00 Ry     beta= 0.70
     Davidson diagonalization with overlap
     ethr =  1.62E-05,  avg # of iterations =  6.0

     negative rho (up, down):  3.307E-02 0.000E+00

     total cpu time spent up to now is      643.9 secs

     total energy              =    -757.32810859 Ry
     Harris-Foulkes estimate   =    -757.33137372 Ry
     estimated scf accuracy    <       0.01771663 Ry

     iteration # 10     ecut=    70.00 Ry     beta= 0.70
     Davidson diagonalization with overlap
     ethr =  8.40E-06,  avg # of iterations =  3.0

     negative rho (up, down):  3.705E-02 0.000E+00

     total cpu time spent up to now is      702.3 secs

     total energy              =    -757.32739916 Ry
     Harris-Foulkes estimate   =    -757.32947059 Ry
     estimated scf accuracy    <       0.00623151 Ry

     iteration # 11     ecut=    70.00 Ry     beta= 0.70
     Davidson diagonalization with overlap
     ethr =  2.95E-06,  avg # of iterations =  3.0

     negative rho (up, down):  3.442E-02 0.000E+00

     total cpu time spent up to now is      761.9 secs

     total energy              =    -757.33000185 Ry
     Harris-Foulkes estimate   =    -757.32998684 Ry
     estimated scf accuracy    <       0.01822416 Ry

     iteration # 12     ecut=    70.00 Ry     beta= 0.70
     Davidson diagonalization with overlap
     ethr =  2.95E-06,  avg # of iterations =  4.0

     negative rho (up, down):  3.309E-02 0.000E+00

     total cpu time spent up to now is      819.2 secs

     total energy              =    -757.33187769 Ry
     Harris-Foulkes estimate   =    -757.33052527 Ry
     estimated scf accuracy    <       0.00099798 Ry

     iteration # 13     ecut=    70.00 Ry     beta= 0.70
     Davidson diagonalization with overlap
     ethr =  4.73E-07,  avg # of iterations =  5.0

     negative rho (up, down):  3.346E-02 0.000E+00

     total cpu time spent up to now is      878.0 secs

     total energy              =    -757.33209962 Ry
     Harris-Foulkes estimate   =    -757.33201410 Ry
     estimated scf accuracy    <       0.00023482 Ry

     iteration # 14     ecut=    70.00 Ry     beta= 0.70
     Davidson diagonalization with overlap
     ethr =  1.11E-07,  avg # of iterations =  3.0

     negative rho (up, down):  3.373E-02 0.000E+00

     total cpu time spent up to now is      935.7 secs

     total energy              =    -757.33210675 Ry
     Harris-Foulkes estimate   =    -757.33215734 Ry
     estimated scf accuracy    <       0.00029123 Ry

     iteration # 15     ecut=    70.00 Ry     beta= 0.70
     Davidson diagonalization with overlap
     ethr =  1.11E-07,  avg # of iterations =  3.0

     negative rho (up, down):  3.388E-02 0.000E+00

     total cpu time spent up to now is      989.9 secs

     total energy              =    -757.33222453 Ry
     Harris-Foulkes estimate   =    -757.33213108 Ry
     estimated scf accuracy    <       0.00007314 Ry

     iteration # 16     ecut=    70.00 Ry     beta= 0.70
     Davidson diagonalization with overlap
     ethr =  3.47E-08,  avg # of iterations =  4.0

     negative rho (up, down):  3.401E-02 0.000E+00

     total cpu time spent up to now is     1044.8 secs

     total energy              =    -757.33222969 Ry
     Harris-Foulkes estimate   =    -757.33224190 Ry
     estimated scf accuracy    <       0.00023002 Ry

     iteration # 17     ecut=    70.00 Ry     beta= 0.70
     Davidson diagonalization with overlap
     ethr =  3.47E-08,  avg # of iterations =  3.0

     negative rho (up, down):  3.407E-02 0.000E+00

     total cpu time spent up to now is     1098.4 secs

     total energy              =    -757.33223495 Ry
     Harris-Foulkes estimate   =    -757.33223602 Ry
     estimated scf accuracy    <       0.00002648 Ry

     iteration # 18     ecut=    70.00 Ry     beta= 0.70
     Davidson diagonalization with overlap
     ethr =  1.25E-08,  avg # of iterations =  1.0

     negative rho (up, down):  3.407E-02 0.000E+00

     total cpu time spent up to now is     1151.8 secs

     total energy              =    -757.33223559 Ry
     Harris-Foulkes estimate   =    -757.33223608 Ry
     estimated scf accuracy    <       0.00000379 Ry

     iteration # 19     ecut=    70.00 Ry     beta= 0.70
     Davidson diagonalization with overlap
     ethr =  1.80E-09,  avg # of iterations =  3.0

     negative rho (up, down):  3.410E-02 0.000E+00

     total cpu time spent up to now is     1205.6 secs

     End of self-consistent calculation

          k = 0.0000 0.0000 0.0000 ( 87777 PWs)   bands (ev):

   -62.7404 -37.8412 -37.8410 -36.4691 -19.6121 -18.7698 -18.7695 -18.6994
   -18.6573 -18.6562 -18.2127 -16.9175 -16.9154 -16.9152 -16.7730 -16.7727
   -16.4972 -16.0583 -16.0579 -15.9697 -15.8120 -15.8110 -15.0635 -13.8651
   -13.8587 -13.8585 -13.8461 -13.8460 -13.1225 -12.9010 -12.9009 -12.8808
   -12.4896 -12.4892 -12.0923 -11.6249 -11.6248 -11.5026 -11.1218 -11.1214
   -10.1321  -9.3177  -9.3172  -9.2392  -9.1623  -9.1622  -9.0765  -9.0490
    -9.0490  -9.0352  -8.4485  -8.4484  -7.8770  -7.8768  -7.8451  -7.7788
    -7.6607  -7.3109  -7.2377  -7.2372  -6.9153  -6.9114  -6.8735  -6.6722
    -6.6715  -6.6617  -6.5736  -6.5735  -6.5285  -6.4186  -6.4181  -6.3753
    -6.3715  -6.3713  -6.3174  -6.2257  -5.2435  -5.2435  -5.1048  -5.1011
    -4.9285  -4.9281  -4.8201  -4.7319  -4.5887  -4.5725  -4.5720  -4.2078
    -3.9480  -3.9479  -3.7122  -3.7119  -3.6249  -3.6026  -3.4832  -3.4830
    -2.8576  -2.2152  -2.2140  -2.1794  -2.1793  -1.6896  -1.6628  -1.6624
    -0.5119  -0.1167  -0.1167   1.0965   1.1009   1.1017   1.1030   1.8525
     2.0959   2.0960   2.5783   2.9384   2.9419   3.0068   3.1856   3.4791
     3.6795   3.7753   3.7770   3.8313   3.9767   4.0466   4.2733

     occupation numbers 
     1.0000   1.0000   1.0000   1.0000   1.0000   1.0000   1.0000   1.0000
     1.0000   1.0000   1.0000   1.0000   1.0000   1.0000   1.0000   1.0000
     1.0000   1.0000   1.0000   1.0000   1.0000   1.0000   1.0000   1.0000
     1.0000   1.0000   1.0000   1.0000   1.0000   1.0000   1.0000   1.0000
     1.0000   1.0000   1.0000   1.0000   1.0000   1.0000   1.0000   1.0000
     1.0000   1.0000   1.0000   1.0000   1.0000   1.0000   1.0000   1.0000
     1.0000   1.0000   1.0000   1.0000   1.0000   1.0000   1.0000   1.0000
     1.0000   1.0000   1.0000   1.0000   1.0000   1.0000   1.0000   1.0000
     1.0000   1.0000   1.0000   1.0000   1.0000   1.0000   1.0000   1.0000
     1.0000   1.0000   1.0000   1.0000   1.0000   1.0000   1.0000   1.0000
     1.0000   1.0000   1.0000   1.0000   1.0000   1.0000   1.0000   1.0000
     1.0000   1.0000   1.0000   1.0000   1.0000   1.0000   1.0000   1.0000
     1.0000   1.0000   1.0000   1.0000   1.0000   1.0000   1.0000   1.0000
     1.0000   0.2511   0.2489   0.0000   0.0000   0.0000   0.0000   0.0000
     0.0000   0.0000   0.0000   0.0000   0.0000   0.0000   0.0000   0.0000
     0.0000   0.0000   0.0000   0.0000   0.0000   0.0000   0.0000

     the Fermi energy is    -0.1201 ev

!    total energy              =    -757.33223550 Ry
     Harris-Foulkes estimate   =    -757.33223586 Ry
     estimated scf accuracy    <       0.00000053 Ry

     The total energy is the sum of the following terms:

     one-electron contribution =   -2586.32886266 Ry
     hartree contribution      =    1340.05821063 Ry
     xc contribution           =    -252.66398475 Ry
     ewald contribution        =     741.60301478 Ry
     smearing contrib. (-TS)   =      -0.00061349 Ry

     convergence has been achieved in  19 iterations

     Writing output data file vanadio-top-distance-3.0.save/

     init_run     :     51.73s CPU     53.10s WALL (       1 calls)
     electrons    :   1116.53s CPU   1151.55s WALL (       1 calls)

     Called by init_run:
     wfcinit      :     22.20s CPU     22.34s WALL (       1 calls)
     wfcinit:atom :      0.04s CPU      0.05s WALL (       1 calls)
     wfcinit:wfcr :     21.96s CPU     22.06s WALL (       1 calls)
     potinit      :     13.32s CPU     13.84s WALL (       1 calls)
     hinit0       :     11.48s CPU     11.53s WALL (       1 calls)

     Called by electrons:
     c_bands      :    688.10s CPU    692.31s WALL (      19 calls)
     sum_band     :    211.46s CPU    223.25s WALL (      19 calls)
     v_of_rho     :    133.63s CPU    142.03s WALL (      20 calls)
     v_h          :      1.49s CPU      1.56s WALL (      20 calls)
     v_xc         :    132.14s CPU    140.47s WALL (      20 calls)
     newd         :     87.70s CPU     99.24s WALL (      20 calls)
     mix_rho      :      4.01s CPU      4.06s WALL (      19 calls)

     Called by c_bands:
     init_us_2    :      1.79s CPU      1.84s WALL (      39 calls)
     cegterg      :    683.33s CPU    687.52s WALL (      19 calls)

     Called by sum_band:
     sum_band:bec :      0.02s CPU      0.02s WALL (      19 calls)
     addusdens    :    129.10s CPU    140.27s WALL (      19 calls)

     Called by *egterg:
     h_psi        :    362.73s CPU    365.66s WALL (      93 calls)
     s_psi        :    119.47s CPU    119.61s WALL (      93 calls)
     g_psi        :      0.42s CPU      0.42s WALL (      73 calls)
     cdiaghg      :      6.52s CPU      6.52s WALL (      92 calls)
     cegterg:over :     82.81s CPU     82.91s WALL (      73 calls)
     cegterg:upda :     53.23s CPU     53.58s WALL (      73 calls)
     cegterg:last :     41.48s CPU     41.52s WALL (      20 calls)

     Called by h_psi:
     h_psi:pot    :    362.28s CPU    364.77s WALL (      93 calls)
     h_psi:calbec :    119.91s CPU    120.05s WALL (      93 calls)
     vloc_psi     :    122.77s CPU    125.01s WALL (      93 calls)
     add_vuspsi   :    119.60s CPU    119.71s WALL (      93 calls)

     General routines
     calbec       :    169.34s CPU    169.52s WALL (     112 calls)
     fft          :     74.41s CPU     77.37s WALL (    1258 calls)
     ffts         :      0.78s CPU      0.82s WALL (      39 calls)
     fftw         :    127.73s CPU    130.15s WALL (   14223 calls)
     interpolate  :      1.81s CPU      1.86s WALL (      20 calls)

     Parallel routines
     fft_scatt_xy :     36.75s CPU     37.21s WALL (   15520 calls)
     fft_scatt_yz :     64.13s CPU     67.95s WALL (   15520 calls)

     PWSCF        :  19m29.36s CPU  20m 5.98s WALL


   This run was terminated on:  18: 0:34  30Aug2022            

=------------------------------------------------------------------------------=
   JOB DONE.
=------------------------------------------------------------------------------=
