
     Program PWSCF v.6.4.1 starts on  9Mar2022 at 23:55:54 

     This program is part of the open-source Quantum ESPRESSO suite
     for quantum simulation of materials; please cite
         "P. Giannozzi et al., J. Phys.:Condens. Matter 21 395502 (2009);
         "P. Giannozzi et al., J. Phys.:Condens. Matter 29 465901 (2017);
          URL http://www.quantum-espresso.org", 
     in publications or presentations arising from this work. More details at
     http://www.quantum-espresso.org/quote

     Parallel version (MPI), running on     6 processors

     MPI processes distributed on     1 nodes
     R & G space division:  proc/nbgrp/npool/nimage =       6
     Reading input from degauss-0.11.in

     Current dimensions of program PWSCF are:
     Max number of different atomic species (ntypx) = 10
     Max number of k-points (npk) =  40000
     Max angular momentum in pseudopotentials (lmaxx) =  3
               file Cr.pbe-spn-rrkjus_psl.1.0.0.UPF: wavefunction(s)  3P renormalized
               file Cr.pbe-spn-rrkjus_psl.1.0.0.UPF: wavefunction(s)  3P renormalized

     Subspace diagonalization in iterative solution of the eigenvalue problem:
     a serial algorithm will be used

     Message from routine setup:
     DEPRECATED: symmetry with ibrav=0, use correct ibrav instead

     Parallelization info
     --------------------
     sticks:   dense  smooth     PW     G-vecs:    dense   smooth      PW
     Min         320     129     39                10576     2689     453
     Max         321     131     41                10577     2690     454
     Sum        1925     777    241                63461    16135    2721



     bravais-lattice index     =            0
     lattice parameter (alat)  =       5.4991  a.u.
     unit-cell volume          =     166.2936 (a.u.)^3
     number of atoms/cell      =            2
     number of atomic types    =            2
     number of electrons       =        28.00
     number of Kohn-Sham states=           18
     kinetic-energy cutoff     =      80.0000  Ry
     charge density cutoff     =     800.0000  Ry
     convergence threshold     =      1.0E-06
     mixing beta               =       0.7000
     number of iterations used =            8  plain     mixing
     Exchange-correlation      = PBE ( 1  4  3  4 0 0)

     celldm(1)=   5.499103  celldm(2)=   0.000000  celldm(3)=   0.000000
     celldm(4)=   0.000000  celldm(5)=   0.000000  celldm(6)=   0.000000

     crystal axes: (cart. coord. in units of alat)
               a(1) = (   1.000000   0.000000   0.000000 )  
               a(2) = (   0.000000   1.000000   0.000000 )  
               a(3) = (   0.000000   0.000000   1.000000 )  

     reciprocal axes: (cart. coord. in units 2 pi/alat)
               b(1) = (  1.000000  0.000000  0.000000 )  
               b(2) = (  0.000000  1.000000  0.000000 )  
               b(3) = (  0.000000  0.000000  1.000000 )  


     PseudoPot. # 1 for Cr read from file:
     /home/cristian/Escritorio/Proyecto_Grafeno/pseudopotenciales/Cr.pbe-spn-rrkjus_psl.1.0.0.UPF
     MD5 check sum: 793d051e4f89dd1e3290b85340a92c0a
     Pseudo is Ultrasoft + core correction, Zval = 14.0
     Generated using "atomic" code by A. Dal Corso v.6.2.2
     Using radial grid of 1183 points,  6 beta functions with: 
                l(1) =   0
                l(2) =   0
                l(3) =   1
                l(4) =   1
                l(5) =   2
                l(6) =   2
     Q(r) pseudized with 0 coefficients 


     PseudoPot. # 2 for Cr read from file:
     /home/cristian/Escritorio/Proyecto_Grafeno/pseudopotenciales/Cr.pbe-spn-rrkjus_psl.1.0.0.UPF
     MD5 check sum: 793d051e4f89dd1e3290b85340a92c0a
     Pseudo is Ultrasoft + core correction, Zval = 14.0
     Generated using "atomic" code by A. Dal Corso v.6.2.2
     Using radial grid of 1183 points,  6 beta functions with: 
                l(1) =   0
                l(2) =   0
                l(3) =   1
                l(4) =   1
                l(5) =   2
                l(6) =   2
     Q(r) pseudized with 0 coefficients 


     atomic species   valence    mass     pseudopotential
        Cr1           14.00    51.99610     Cr( 1.00)
        Cr2           14.00    51.99610     Cr( 1.00)

     Starting magnetic structure 
     atomic species   magnetization
        Cr1          0.100
        Cr2         -0.100

     48 Sym. Ops., with inversion, found



   Cartesian axes

     site n.     atom                  positions (alat units)
         1           Cr1 tau(   1) = (   0.0000000   0.0000000   0.0000000  )
         2           Cr2 tau(   2) = (   0.5000000   0.5000000   0.5000000  )

     number of k points=    35  gaussian smearing, width (Ry)=  0.1100
                       cart. coord. in units 2pi/alat
        k(    1) = (   0.0500000   0.0500000   0.0500000), wk =   0.0080000
        k(    2) = (   0.0500000   0.0500000   0.1500000), wk =   0.0240000
        k(    3) = (   0.0500000   0.0500000   0.2500000), wk =   0.0240000
        k(    4) = (   0.0500000   0.0500000   0.3500000), wk =   0.0240000
        k(    5) = (   0.0500000   0.0500000   0.4500000), wk =   0.0240000
        k(    6) = (   0.0500000   0.1500000   0.1500000), wk =   0.0240000
        k(    7) = (   0.0500000   0.1500000   0.2500000), wk =   0.0480000
        k(    8) = (   0.0500000   0.1500000   0.3500000), wk =   0.0480000
        k(    9) = (   0.0500000   0.1500000   0.4500000), wk =   0.0480000
        k(   10) = (   0.0500000   0.2500000   0.2500000), wk =   0.0240000
        k(   11) = (   0.0500000   0.2500000   0.3500000), wk =   0.0480000
        k(   12) = (   0.0500000   0.2500000   0.4500000), wk =   0.0480000
        k(   13) = (   0.0500000   0.3500000   0.3500000), wk =   0.0240000
        k(   14) = (   0.0500000   0.3500000   0.4500000), wk =   0.0480000
        k(   15) = (   0.0500000   0.4500000   0.4500000), wk =   0.0240000
        k(   16) = (   0.1500000   0.1500000   0.1500000), wk =   0.0080000
        k(   17) = (   0.1500000   0.1500000   0.2500000), wk =   0.0240000
        k(   18) = (   0.1500000   0.1500000   0.3500000), wk =   0.0240000
        k(   19) = (   0.1500000   0.1500000   0.4500000), wk =   0.0240000
        k(   20) = (   0.1500000   0.2500000   0.2500000), wk =   0.0240000
        k(   21) = (   0.1500000   0.2500000   0.3500000), wk =   0.0480000
        k(   22) = (   0.1500000   0.2500000   0.4500000), wk =   0.0480000
        k(   23) = (   0.1500000   0.3500000   0.3500000), wk =   0.0240000
        k(   24) = (   0.1500000   0.3500000   0.4500000), wk =   0.0480000
        k(   25) = (   0.1500000   0.4500000   0.4500000), wk =   0.0240000
        k(   26) = (   0.2500000   0.2500000   0.2500000), wk =   0.0080000
        k(   27) = (   0.2500000   0.2500000   0.3500000), wk =   0.0240000
        k(   28) = (   0.2500000   0.2500000   0.4500000), wk =   0.0240000
        k(   29) = (   0.2500000   0.3500000   0.3500000), wk =   0.0240000
        k(   30) = (   0.2500000   0.3500000   0.4500000), wk =   0.0480000
        k(   31) = (   0.2500000   0.4500000   0.4500000), wk =   0.0240000
        k(   32) = (   0.3500000   0.3500000   0.3500000), wk =   0.0080000
        k(   33) = (   0.3500000   0.3500000   0.4500000), wk =   0.0240000
        k(   34) = (   0.3500000   0.4500000   0.4500000), wk =   0.0240000
        k(   35) = (   0.4500000   0.4500000   0.4500000), wk =   0.0080000

     Dense  grid:    63461 G-vectors     FFT dimensions: (  50,  50,  50)

     Smooth grid:    16135 G-vectors     FFT dimensions: (  32,  32,  32)

     Estimated max dynamical RAM per process >      51.30 MB

     Estimated total dynamical RAM >     307.81 MB
     Generating pointlists ...
     new r_m :   0.3572 (alat units)  1.9645 (a.u.) for type    1
     new r_m :   0.3572 (alat units)  1.9645 (a.u.) for type    2

     Check: negative core charge=   -0.000002

     Initial potential from superposition of free atoms

     starting charge   27.99845, renormalised to   28.00000
     Starting wfcs are   20 randomized atomic wfcs

     total cpu time spent up to now is        2.4 secs

     Self-consistent Calculation

     iteration #  1     ecut=    80.00 Ry     beta= 0.70
     Davidson diagonalization with overlap
     ethr =  1.00E-02,  avg # of iterations =  2.5

     Threshold (ethr) on eigenvalues was too large:
     Diagonalizing with lowered threshold

     Davidson diagonalization with overlap
     ethr =  4.53E-04,  avg # of iterations =  2.8

     total cpu time spent up to now is        5.2 secs

     total energy              =    -350.01304232 Ry
     Harris-Foulkes estimate   =    -350.09889948 Ry
     estimated scf accuracy    <       0.13982242 Ry

     total magnetization       =     0.00 Bohr mag/cell
     absolute magnetization    =     1.86 Bohr mag/cell

     iteration #  2     ecut=    80.00 Ry     beta= 0.70
     Davidson diagonalization with overlap
     ethr =  4.99E-04,  avg # of iterations =  3.2

     total cpu time spent up to now is        7.3 secs

     total energy              =    -350.03190800 Ry
     Harris-Foulkes estimate   =    -350.12587743 Ry
     estimated scf accuracy    <       0.20316567 Ry

     total magnetization       =     0.00 Bohr mag/cell
     absolute magnetization    =     1.96 Bohr mag/cell

     iteration #  3     ecut=    80.00 Ry     beta= 0.70
     Davidson diagonalization with overlap
     ethr =  4.99E-04,  avg # of iterations =  3.1

     total cpu time spent up to now is        9.0 secs

     total energy              =    -350.07554421 Ry
     Harris-Foulkes estimate   =    -350.07499588 Ry
     estimated scf accuracy    <       0.00307350 Ry

     total magnetization       =     0.00 Bohr mag/cell
     absolute magnetization    =     1.73 Bohr mag/cell

     iteration #  4     ecut=    80.00 Ry     beta= 0.70
     Davidson diagonalization with overlap
     ethr =  1.10E-05,  avg # of iterations =  3.9

     total cpu time spent up to now is       10.9 secs

     total energy              =    -350.07681112 Ry
     Harris-Foulkes estimate   =    -350.07714201 Ry
     estimated scf accuracy    <       0.00420641 Ry

     total magnetization       =    -0.00 Bohr mag/cell
     absolute magnetization    =     1.46 Bohr mag/cell

     iteration #  5     ecut=    80.00 Ry     beta= 0.70
     Davidson diagonalization with overlap
     ethr =  1.10E-05,  avg # of iterations =  1.2

     total cpu time spent up to now is       12.1 secs

     total energy              =    -350.07666086 Ry
     Harris-Foulkes estimate   =    -350.07701774 Ry
     estimated scf accuracy    <       0.00054916 Ry

     total magnetization       =     0.00 Bohr mag/cell
     absolute magnetization    =     1.45 Bohr mag/cell

     iteration #  6     ecut=    80.00 Ry     beta= 0.70
     Davidson diagonalization with overlap
     ethr =  1.96E-06,  avg # of iterations =  4.3

     total cpu time spent up to now is       14.0 secs

     total energy              =    -350.07759041 Ry
     Harris-Foulkes estimate   =    -350.07887736 Ry
     estimated scf accuracy    <       0.00092935 Ry

     total magnetization       =     0.00 Bohr mag/cell
     absolute magnetization    =     0.99 Bohr mag/cell

     iteration #  7     ecut=    80.00 Ry     beta= 0.70
     Davidson diagonalization with overlap
     ethr =  1.96E-06,  avg # of iterations =  4.3

     total cpu time spent up to now is       16.0 secs

     total energy              =    -350.07928969 Ry
     Harris-Foulkes estimate   =    -350.07996266 Ry
     estimated scf accuracy    <       0.00031536 Ry

     total magnetization       =     0.00 Bohr mag/cell
     absolute magnetization    =     0.52 Bohr mag/cell

     iteration #  8     ecut=    80.00 Ry     beta= 0.70
     Davidson diagonalization with overlap
     ethr =  1.13E-06,  avg # of iterations =  4.3

     total cpu time spent up to now is       18.0 secs

     total energy              =    -350.08002556 Ry
     Harris-Foulkes estimate   =    -350.08030727 Ry
     estimated scf accuracy    <       0.00000984 Ry

     total magnetization       =     0.00 Bohr mag/cell
     absolute magnetization    =     0.21 Bohr mag/cell

     iteration #  9     ecut=    80.00 Ry     beta= 0.70
     Davidson diagonalization with overlap
     c_bands:  1 eigenvalues not converged
     c_bands:  1 eigenvalues not converged
     ethr =  3.51E-08,  avg # of iterations =  5.1

     total cpu time spent up to now is       20.6 secs

     total energy              =    -350.08036534 Ry
     Harris-Foulkes estimate   =    -350.08037510 Ry
     estimated scf accuracy    <       0.00000738 Ry

     total magnetization       =     0.00 Bohr mag/cell
     absolute magnetization    =     0.02 Bohr mag/cell

     iteration # 10     ecut=    80.00 Ry     beta= 0.70
     Davidson diagonalization with overlap
     ethr =  2.63E-08,  avg # of iterations =  4.1

     Magnetic moment per site:
     atom:    1    charge:   12.2921    magn:   -0.0030    constr:    0.0000
     atom:    2    charge:   12.2913    magn:    0.0036    constr:    0.0000

     total cpu time spent up to now is       22.4 secs

     End of self-consistent calculation

 ------ SPIN UP ------------


          k = 0.0500 0.0500 0.0500 (  2007 PWs)   bands (ev):

   -53.4781 -53.2100 -24.8869 -24.8869 -24.8597 -24.3871 -24.3584 -24.3584
    10.6176  14.3743  14.3743  17.4624  17.4624  17.6289  19.3909  19.3909
    20.2949  20.5838

          k = 0.0500 0.0500 0.1500 (  2005 PWs)   bands (ev):

   -53.4629 -53.2210 -24.9013 -24.8596 -24.8193 -24.4494 -24.3828 -24.3692
    11.0246  14.5803  14.5822  17.3732  17.4331  17.8406  19.1330  19.5037
    19.7230  20.1043

          k = 0.0500 0.0500 0.2500 (  1997 PWs)   bands (ev):

   -53.4346 -53.2425 -24.9018 -24.8080 -24.7633 -24.5433 -24.4295 -24.4068
    11.7909  14.8764  14.9848  17.3438  17.3983  18.1455  18.6629  19.0352
    19.4191  19.7006

          k = 0.0500 0.0500 0.3500 (  2010 PWs)   bands (ev):

   -53.3968 -53.2734 -24.8810 -24.7380 -24.6937 -24.6513 -24.4948 -24.4650
    12.8097  15.0192  15.5528  17.3324  17.4152  18.1246  18.4141  18.5381
    18.7593  19.9202

          k = 0.0500 0.0500 0.4500 (  2013 PWs)   bands (ev):

   -53.3543 -53.3117 -24.8318 -24.7528 -24.6568 -24.6159 -24.5730 -24.5371
    13.8849  14.7103  16.2350  16.9274  17.6184  17.9489  17.9625  18.2461
    18.9922  19.4654

          k = 0.0500 0.1500 0.1500 (  2001 PWs)   bands (ev):

   -53.4490 -53.2306 -24.9296 -24.8441 -24.7599 -24.5292 -24.4017 -24.3595
    11.4127  14.7437  14.8126  17.1651  17.3362  18.1856  19.0559  19.1666
    19.4352  19.7799

          k = 0.0500 0.1500 0.2500 (  1999 PWs)   bands (ev):

   -53.4230 -53.2496 -24.9516 -24.7966 -24.6912 -24.6353 -24.4439 -24.3740
    12.1351  14.9967  15.2024  17.0111  17.2235  18.3695  18.6066  18.9150
    19.1947  19.6001

          k = 0.0500 0.1500 0.3500 (  2004 PWs)   bands (ev):

   -53.3885 -53.2771 -24.9492 -24.7468 -24.7306 -24.6169 -24.5037 -24.4135
    13.0747  15.1020  15.6894  16.9574  17.1033  17.8173  18.5863  18.7183
    19.0758  19.8750

          k = 0.0500 0.1500 0.4500 (  2011 PWs)   bands (ev):

   -53.3499 -53.3114 -24.9141 -24.8446 -24.6544 -24.5761 -24.5418 -24.4718
    14.0375  14.7804  16.2351  16.7249  17.1592  17.4242  18.4377  18.4908
    19.5318  19.9408

          k = 0.0500 0.2500 0.2500 (  2007 PWs)   bands (ev):

   -53.4016 -53.2639 -24.9986 -24.7581 -24.7501 -24.6129 -24.4762 -24.3611
    12.7499  15.0526  15.6685  16.7217  17.0977  17.7195  18.8294  19.1069
    19.1640  19.5215

          k = 0.0500 0.2500 0.3500 (  2005 PWs)   bands (ev):

   -53.3734 -53.2849 -25.0202 -24.8616 -24.7040 -24.5371 -24.5225 -24.3753
    13.4845  14.9610  16.1990  16.5707  17.0840  17.2066  18.6944  19.0449
    19.6493  19.7604

          k = 0.0500 0.2500 0.4500 (  2017 PWs)   bands (ev):

   -53.3422 -53.3116 -25.0055 -24.9511 -24.6422 -24.5795 -24.4688 -24.4130
    14.1547  14.6558  16.5765  16.6030  16.9151  17.0413  18.8158  18.9515
    19.9839  20.3900

          k = 0.0500 0.3500 0.3500 (  2016 PWs)   bands (ev):

   -53.3539 -53.2970 -25.0669 -24.9659 -24.6672 -24.5504 -24.4671 -24.3628
    13.8596  14.6855  16.3137  16.7036  16.8984  17.4520  18.8489  19.3011
    19.6357  20.2521

          k = 0.0500 0.3500 0.4500 (  2018 PWs)   bands (ev):

   -53.3330 -53.3132 -25.0758 -25.0411 -24.6262 -24.5857 -24.4121 -24.3761
    14.1396  14.3990  16.2414  16.3732  17.5247  17.7876  19.1148  19.3022
    19.9358  20.5921

          k = 0.0500 0.4500 0.4500 (  2011 PWs)   bands (ev):

   -53.3245 -53.3170 -25.1089 -25.0970 -24.6100 -24.5957 -24.3763 -24.3639
    14.1179  14.1974  16.0758  16.1210  18.4007  18.6653  19.3355  19.4278
    19.7242  20.2537

          k = 0.1500 0.1500 0.1500 (  1992 PWs)   bands (ev):

   -53.4361 -53.2391 -24.9003 -24.9003 -24.6927 -24.6005 -24.3858 -24.3858
    11.7891  14.9714  14.9714  17.0722  17.0722  18.3148  18.5787  19.3058
    19.3058  20.1883

          k = 0.1500 0.1500 0.2500 (  2000 PWs)   bands (ev):

   -53.4123 -53.2558 -24.9433 -24.8450 -24.6995 -24.6226 -24.4364 -24.3857
    12.4831  15.2688  15.2822  16.8798  16.9136  17.6499  19.0723  19.0745
    19.5343  19.5670

          k = 0.1500 0.1500 0.3500 (  2007 PWs)   bands (ev):

   -53.3808 -53.2803 -24.9599 -24.8014 -24.7695 -24.5553 -24.5071 -24.4056
    13.3676  15.3500  15.6615  16.7097  16.8680  17.2881  18.8063  19.0269
    19.5567  19.8658

          k = 0.1500 0.1500 0.4500 (  2008 PWs)   bands (ev):

   -53.3457 -53.3110 -24.9418 -24.8869 -24.6821 -24.5916 -24.4943 -24.4431
    14.2521  14.9591  16.0794  16.4411  17.0296  17.1908  18.6374  18.6980
    19.7863  19.9711

          k = 0.1500 0.2500 0.2500 (  2005 PWs)   bands (ev):

   -53.3926 -53.2683 -24.9660 -24.8300 -24.7910 -24.5550 -24.4637 -24.3908
    13.1014  15.3517  15.7270  16.6099  16.7522  17.0369  19.2315  19.3719
    19.4939  19.6653

          k = 0.1500 0.2500 0.3500 (  2005 PWs)   bands (ev):

   -53.3668 -53.2869 -24.9941 -24.8826 -24.7657 -24.5235 -24.4966 -24.3977
    13.8250  15.2713  16.0870  16.4390  16.7280  16.8130  19.0833  19.1365
    19.6742  20.2531

          k = 0.1500 0.2500 0.4500 (  2011 PWs)   bands (ev):

   -53.3384 -53.3108 -24.9928 -24.9543 -24.6847 -24.6004 -24.4503 -24.4170
    14.4592  14.9418  16.2262  16.3237  16.8700  16.9180  18.9874  19.0221
    19.8583  20.0610

          k = 0.1500 0.3500 0.3500 (  2017 PWs)   bands (ev):

   -53.3488 -53.2975 -25.0312 -24.9626 -24.7234 -24.5570 -24.4513 -24.3959
    14.2223  14.9823  16.2257  16.4254  16.7827  16.9603  19.1209  19.3528
    19.6445  20.2773

          k = 0.1500 0.3500 0.4500 (  2018 PWs)   bands (ev):

   -53.3298 -53.3119 -25.0438 -25.0204 -24.6653 -24.6062 -24.4204 -24.4027
    14.4756  14.7035  16.1450  16.2186  17.2772  17.3282  19.2443  19.3402
    19.7986  20.0804

          k = 0.1500 0.4500 0.4500 (  2021 PWs)   bands (ev):

   -53.3220 -53.3151 -25.0713 -25.0633 -24.6395 -24.6180 -24.4044 -24.3990
    14.4460  14.5122  16.0129  16.0450  17.8976  17.9451  19.4212  19.4710
    19.7351  19.9032

          k = 0.2500 0.2500 0.2500 (  2022 PWs)   bands (ev):

   -53.3762 -53.2775 -24.9045 -24.9045 -24.8550 -24.5011 -24.4478 -24.4478
    13.7164  15.8225  15.8225  16.3920  16.4350  16.4350  19.4293  19.4293
    19.7685  19.7685

          k = 0.2500 0.2500 0.3500 (  2011 PWs)   bands (ev):

   -53.3549 -53.2914 -24.9587 -24.9198 -24.8205 -24.5271 -24.4623 -24.4356
    14.3893  15.6820  15.9239  16.2588  16.3781  16.4956  19.3327  19.3970
    19.6451  19.9237

          k = 0.2500 0.2500 0.4500 (  2009 PWs)   bands (ev):

   -53.3319 -53.3099 -24.9807 -24.9661 -24.7229 -24.6218 -24.4398 -24.4317
    14.8836  15.2575  16.0169  16.1194  16.6162  16.7576  19.2362  19.2434
    19.8039  19.8991

          k = 0.2500 0.3500 0.3500 (  2012 PWs)   bands (ev):

   -53.3399 -53.2990 -24.9635 -24.9598 -24.7998 -24.5595 -24.4592 -24.4454
    14.8694  15.4265  16.0992  16.1513  16.3877  16.5680  19.4444  19.4860
    19.6499  19.8732

          k = 0.2500 0.3500 0.4500 (  2015 PWs)   bands (ev):

   -53.3244 -53.3100 -24.9862 -24.9859 -24.7219 -24.6338 -24.4538 -24.4447
    15.0480  15.1824  16.0266  16.0612  16.7493  16.8751  19.4424  19.4719
    19.7605  19.8453

          k = 0.2500 0.4500 0.4500 (  2023 PWs)   bands (ev):

   -53.3178 -53.3120 -25.0010 -24.9999 -24.6878 -24.6517 -24.4662 -24.4588
    15.0175  15.0456  15.9320  15.9588  17.1802  17.2308  19.5572  19.5781
    19.7517  19.7956

          k = 0.3500 0.3500 0.3500 (  2010 PWs)   bands (ev):

   -53.3290 -53.3026 -24.9582 -24.8711 -24.8711 -24.5472 -24.5472 -24.4581
    15.5474  15.5687  16.0034  16.0034  16.3141  16.3141  19.6411  19.6411
    19.6747  19.6747

          k = 0.3500 0.3500 0.4500 (  2007 PWs)   bands (ev):

   -53.3183 -53.3087 -24.9499 -24.9227 -24.7636 -24.6520 -24.5194 -24.4858
    15.4853  15.5589  15.9961  16.1042  16.3674  16.5604  19.6155  19.6219
    19.7510  19.7708

          k = 0.3500 0.4500 0.4500 (  2006 PWs)   bands (ev):

   -53.3135 -53.3090 -24.9213 -24.9023 -24.7403 -24.6776 -24.5595 -24.5335
    15.5584  15.6489  15.9004  15.9992  16.5688  16.6460  19.6913  19.6969
    19.7666  19.7745

          k = 0.4500 0.4500 0.4500 (  1974 PWs)   bands (ev):

   -53.3107 -53.3073 -24.8443 -24.7886 -24.7886 -24.6706 -24.6706 -24.6140
    15.8006  15.9828  15.9828  16.2250  16.2250  16.2527  19.7730  19.7730
    19.7767  19.7767

 ------ SPIN DOWN ----------


          k = 0.0500 0.0500 0.0500 (  2007 PWs)   bands (ev):

   -53.4776 -53.2095 -24.8864 -24.8864 -24.8592 -24.3866 -24.3578 -24.3578
    10.6176  14.3745  14.3745  17.4628  17.4628  17.6293  19.3913  19.3913
    20.2954  20.5843

          k = 0.0500 0.0500 0.1500 (  2005 PWs)   bands (ev):

   -53.4624 -53.2205 -24.9008 -24.8590 -24.8188 -24.4489 -24.3822 -24.3687
    11.0246  14.5805  14.5825  17.3736  17.4335  17.8410  19.1335  19.5041
    19.7234  20.1047

          k = 0.0500 0.0500 0.2500 (  1997 PWs)   bands (ev):

   -53.4341 -53.2420 -24.9013 -24.8075 -24.7628 -24.5428 -24.4290 -24.4062
    11.7909  14.8767  14.9850  17.3441  17.3987  18.1459  18.6633  19.0356
    19.4195  19.7010

          k = 0.0500 0.0500 0.3500 (  2010 PWs)   bands (ev):

   -53.3963 -53.2729 -24.8805 -24.7375 -24.6932 -24.6507 -24.4943 -24.4644
    12.8097  15.0194  15.5531  17.3328  17.4156  18.1250  18.4145  18.5385
    18.7596  19.9207

          k = 0.0500 0.0500 0.4500 (  2013 PWs)   bands (ev):

   -53.3539 -53.3111 -24.8313 -24.7523 -24.6563 -24.6153 -24.5724 -24.5365
    13.8850  14.7104  16.2353  16.9278  17.6188  17.9493  17.9629  18.2465
    18.9927  19.4659

          k = 0.0500 0.1500 0.1500 (  2001 PWs)   bands (ev):

   -53.4485 -53.2301 -24.9291 -24.8435 -24.7594 -24.5287 -24.4012 -24.3589
    11.4127  14.7440  14.8129  17.1655  17.3366  18.1861  19.0563  19.1670
    19.4357  19.7803

          k = 0.0500 0.1500 0.2500 (  1999 PWs)   bands (ev):

   -53.4225 -53.2491 -24.9511 -24.7961 -24.6907 -24.6347 -24.4434 -24.3734
    12.1351  14.9970  15.2026  17.0115  17.2239  18.3699  18.6071  18.9154
    19.1951  19.6006

          k = 0.0500 0.1500 0.3500 (  2004 PWs)   bands (ev):

   -53.3880 -53.2766 -24.9487 -24.7463 -24.7301 -24.6163 -24.5032 -24.4130
    13.0747  15.1022  15.6897  16.9578  17.1036  17.8176  18.5868  18.7187
    19.0762  19.8755

          k = 0.0500 0.1500 0.4500 (  2011 PWs)   bands (ev):

   -53.3495 -53.3108 -24.9136 -24.8441 -24.6539 -24.5755 -24.5413 -24.4713
    14.0376  14.7805  16.2354  16.7252  17.1596  17.4246  18.4381  18.4912
    19.5322  19.9413

          k = 0.0500 0.2500 0.2500 (  2007 PWs)   bands (ev):

   -53.4011 -53.2633 -24.9981 -24.7575 -24.7496 -24.6124 -24.4757 -24.3606
    12.7499  15.0529  15.6687  16.7221  17.0980  17.7199  18.8298  19.1074
    19.1645  19.5220

          k = 0.0500 0.2500 0.3500 (  2005 PWs)   bands (ev):

   -53.3729 -53.2843 -25.0197 -24.8611 -24.7035 -24.5366 -24.5220 -24.3747
    13.4846  14.9612  16.1993  16.5710  17.0843  17.2070  18.6948  19.0454
    19.6498  19.7609

          k = 0.0500 0.2500 0.4500 (  2017 PWs)   bands (ev):

   -53.3418 -53.3110 -25.0050 -24.9506 -24.6417 -24.5790 -24.4683 -24.4125
    14.1548  14.6560  16.5768  16.6032  16.9154  17.0416  18.8162  18.9520
    19.9844  20.3904

          k = 0.0500 0.3500 0.3500 (  2016 PWs)   bands (ev):

   -53.3534 -53.2964 -25.0664 -24.9654 -24.6667 -24.5498 -24.4665 -24.3623
    13.8597  14.6857  16.3141  16.7040  16.8986  17.4522  18.8494  19.3015
    19.6362  20.2526

          k = 0.0500 0.3500 0.4500 (  2018 PWs)   bands (ev):

   -53.3326 -53.3126 -25.0753 -25.0406 -24.6257 -24.5851 -24.4116 -24.3755
    14.1398  14.3992  16.2417  16.3735  17.5249  17.7878  19.1153  19.3027
    19.9363  20.5925

          k = 0.0500 0.4500 0.4500 (  2011 PWs)   bands (ev):

   -53.3243 -53.3163 -25.1084 -25.0965 -24.6096 -24.5951 -24.3758 -24.3633
    14.1181  14.1977  16.0761  16.1214  18.4009  18.6654  19.3360  19.4283
    19.7247  20.2541

          k = 0.1500 0.1500 0.1500 (  1992 PWs)   bands (ev):

   -53.4356 -53.2386 -24.8998 -24.8998 -24.6922 -24.5999 -24.3852 -24.3852
    11.7891  14.9716  14.9716  17.0725  17.0725  18.3152  18.5792  19.3063
    19.3063  20.1888

          k = 0.1500 0.1500 0.2500 (  2000 PWs)   bands (ev):

   -53.4118 -53.2553 -24.9427 -24.8444 -24.6990 -24.6220 -24.4359 -24.3851
    12.4831  15.2691  15.2824  16.8802  16.9139  17.6502  19.0728  19.0750
    19.5348  19.5674

          k = 0.1500 0.1500 0.3500 (  2007 PWs)   bands (ev):

   -53.3803 -53.2797 -24.9594 -24.8009 -24.7690 -24.5548 -24.5066 -24.4051
    13.3676  15.3502  15.6617  16.7100  16.8684  17.2885  18.8067  19.0273
    19.5572  19.8662

          k = 0.1500 0.1500 0.4500 (  2008 PWs)   bands (ev):

   -53.3453 -53.3104 -24.9413 -24.8864 -24.6816 -24.5911 -24.4937 -24.4425
    14.2522  14.9592  16.0797  16.4414  17.0300  17.1912  18.6378  18.6984
    19.7868  19.9715

          k = 0.1500 0.2500 0.2500 (  2005 PWs)   bands (ev):

   -53.3921 -53.2678 -24.9655 -24.8295 -24.7905 -24.5544 -24.4632 -24.3903
    13.1014  15.3519  15.7272  16.6102  16.7525  17.0372  19.2320  19.3723
    19.4944  19.6657

          k = 0.1500 0.2500 0.3500 (  2005 PWs)   bands (ev):

   -53.3663 -53.2864 -24.9935 -24.8821 -24.7652 -24.5229 -24.4961 -24.3971
    13.8251  15.2715  16.0873  16.4394  16.7283  16.8133  19.0837  19.1369
    19.6747  20.2536

          k = 0.1500 0.2500 0.4500 (  2011 PWs)   bands (ev):

   -53.3380 -53.3102 -24.9923 -24.9538 -24.6842 -24.5998 -24.4497 -24.4165
    14.4593  14.9420  16.2265  16.3240  16.8703  16.9183  18.9879  19.0226
    19.8588  20.0615

          k = 0.1500 0.3500 0.3500 (  2017 PWs)   bands (ev):

   -53.3484 -53.2969 -25.0307 -24.9621 -24.7229 -24.5565 -24.4508 -24.3954
    14.2224  14.9825  16.2261  16.4257  16.7830  16.9606  19.1214  19.3533
    19.6450  20.2778

          k = 0.1500 0.3500 0.4500 (  2018 PWs)   bands (ev):

   -53.3294 -53.3112 -25.0433 -25.0198 -24.6648 -24.6057 -24.4199 -24.4022
    14.4758  14.7037  16.1453  16.2190  17.2774  17.3284  19.2448  19.3407
    19.7991  20.0809

          k = 0.1500 0.4500 0.4500 (  2021 PWs)   bands (ev):

   -53.3217 -53.3143 -25.0708 -25.0627 -24.6390 -24.6174 -24.4039 -24.3985
    14.4462  14.5124  16.0133  16.0453  17.8978  17.9452  19.4217  19.4714
    19.7356  19.9037

          k = 0.2500 0.2500 0.2500 (  2022 PWs)   bands (ev):

   -53.3757 -53.2769 -24.9039 -24.9039 -24.8545 -24.5006 -24.4473 -24.4473
    13.7165  15.8227  15.8227  16.3923  16.4354  16.4354  19.4298  19.4298
    19.7689  19.7689

          k = 0.2500 0.2500 0.3500 (  2011 PWs)   bands (ev):

   -53.3544 -53.2909 -24.9582 -24.9192 -24.8199 -24.5266 -24.4618 -24.4351
    14.3893  15.6822  15.9242  16.2591  16.3784  16.4959  19.3332  19.3975
    19.6456  19.9241

          k = 0.2500 0.2500 0.4500 (  2009 PWs)   bands (ev):

   -53.3315 -53.3092 -24.9802 -24.9656 -24.7224 -24.6212 -24.4392 -24.4312
    14.8837  15.2577  16.0172  16.1197  16.6165  16.7579  19.2366  19.2438
    19.8044  19.8996

          k = 0.2500 0.3500 0.3500 (  2012 PWs)   bands (ev):

   -53.3394 -53.2985 -24.9630 -24.9592 -24.7993 -24.5590 -24.4586 -24.4449
    14.8695  15.4268  16.0995  16.1516  16.3880  16.5682  19.4448  19.4865
    19.6504  19.8737

          k = 0.2500 0.3500 0.4500 (  2015 PWs)   bands (ev):

   -53.3240 -53.3093 -24.9857 -24.9853 -24.7214 -24.6333 -24.4533 -24.4442
    15.0482  15.1827  16.0269  16.0615  16.7495  16.8753  19.4429  19.4724
    19.7610  19.8458

          k = 0.2500 0.4500 0.4500 (  2023 PWs)   bands (ev):

   -53.3176 -53.3111 -25.0005 -24.9994 -24.6873 -24.6511 -24.4657 -24.4582
    15.0177  15.0459  15.9323  15.9591  17.1804  17.2310  19.5576  19.5786
    19.7522  19.7961

          k = 0.3500 0.3500 0.3500 (  2010 PWs)   bands (ev):

   -53.3285 -53.3020 -24.9577 -24.8706 -24.8706 -24.5466 -24.5466 -24.4576
    15.5477  15.5688  16.0037  16.0037  16.3144  16.3144  19.6416  19.6416
    19.6752  19.6752

          k = 0.3500 0.3500 0.4500 (  2007 PWs)   bands (ev):

   -53.3180 -53.3080 -24.9494 -24.9222 -24.7631 -24.6514 -24.5189 -24.4852
    15.4856  15.5591  15.9963  16.1045  16.3676  16.5606  19.6159  19.6225
    19.7514  19.7714

          k = 0.3500 0.4500 0.4500 (  2006 PWs)   bands (ev):

   -53.3134 -53.3081 -24.9208 -24.9018 -24.7398 -24.6771 -24.5590 -24.5330
    15.5587  15.6492  15.9007  15.9994  16.5690  16.6462  19.6916  19.6976
    19.7668  19.7752

          k = 0.4500 0.4500 0.4500 (  1974 PWs)   bands (ev):

   -53.3107 -53.3062 -24.8438 -24.7881 -24.7881 -24.6700 -24.6700 -24.6135
    15.8009  15.9831  15.9831  16.2252  16.2252  16.2530  19.7731  19.7731
    19.7776  19.7776

     the Fermi energy is    18.1351 ev

!    total energy              =    -350.08037580 Ry
     Harris-Foulkes estimate   =    -350.08037599 Ry
     estimated scf accuracy    <       0.00000026 Ry

     The total energy is the sum of the following terms:

     one-electron contribution =    -121.69693861 Ry
     hartree contribution      =      75.77870272 Ry
     xc contribution           =     -44.50836590 Ry
     ewald contribution        =    -259.42040003 Ry
     smearing contrib. (-TS)   =      -0.23337398 Ry

     total magnetization       =     0.00 Bohr mag/cell
     absolute magnetization    =     0.01 Bohr mag/cell

     convergence has been achieved in  10 iterations

     Writing output data file degauss-0.11.save/

     init_run     :      0.87s CPU      0.90s WALL (       1 calls)
     electrons    :     19.66s CPU     20.09s WALL (       1 calls)

     Called by init_run:
     wfcinit      :      0.42s CPU      0.44s WALL (       1 calls)
     potinit      :      0.07s CPU      0.07s WALL (       1 calls)
     hinit0       :      0.26s CPU      0.26s WALL (       1 calls)

     Called by electrons:
     c_bands      :     15.89s CPU     16.28s WALL (      11 calls)
     sum_band     :      2.75s CPU      2.79s WALL (      11 calls)
     v_of_rho     :      0.38s CPU      0.38s WALL (      11 calls)
     newd         :      0.67s CPU      0.68s WALL (      11 calls)
     mix_rho      :      0.03s CPU      0.03s WALL (      11 calls)

     Called by c_bands:
     init_us_2    :      0.23s CPU      0.23s WALL (    1610 calls)
     cegterg      :     15.06s CPU     15.45s WALL (     770 calls)

     Called by sum_band:
     sum_band:bec :      0.01s CPU      0.01s WALL (     770 calls)
     addusdens    :      1.09s CPU      1.10s WALL (      11 calls)

     Called by *egterg:
     h_psi        :      7.82s CPU      8.05s WALL (    3561 calls)
     s_psi        :      0.85s CPU      0.89s WALL (    3561 calls)
     g_psi        :      0.08s CPU      0.08s WALL (    2721 calls)
     cdiaghg      :      2.33s CPU      2.37s WALL (    3421 calls)

     Called by h_psi:
     h_psi:pot    :      7.79s CPU      8.02s WALL (    3561 calls)
     h_psi:calbec :      1.15s CPU      1.19s WALL (    3561 calls)
     vloc_psi     :      5.75s CPU      5.90s WALL (    3561 calls)
     add_vuspsi   :      0.89s CPU      0.93s WALL (    3561 calls)

     General routines
     calbec       :      1.53s CPU      1.58s WALL (    4331 calls)
     fft          :      0.18s CPU      0.18s WALL (     271 calls)
     ffts         :      0.01s CPU      0.01s WALL (      44 calls)
     fftw         :      5.81s CPU      5.95s WALL (   97640 calls)
     interpolate  :      0.02s CPU      0.02s WALL (      22 calls)

     Parallel routines
     fft_scatt_xy :      0.76s CPU      0.78s WALL (   97955 calls)
     fft_scatt_yz :      2.98s CPU      3.04s WALL (   97955 calls)

     PWSCF        :     22.04s CPU     22.55s WALL


   This run was terminated on:  23:56:17   9Mar2022            

=------------------------------------------------------------------------------=
   JOB DONE.
=------------------------------------------------------------------------------=
