
     Program PWSCF v.6.4.1 starts on  9Mar2022 at 23:55: 1 

     This program is part of the open-source Quantum ESPRESSO suite
     for quantum simulation of materials; please cite
         "P. Giannozzi et al., J. Phys.:Condens. Matter 21 395502 (2009);
         "P. Giannozzi et al., J. Phys.:Condens. Matter 29 465901 (2017);
          URL http://www.quantum-espresso.org", 
     in publications or presentations arising from this work. More details at
     http://www.quantum-espresso.org/quote

     Parallel version (MPI), running on     6 processors

     MPI processes distributed on     1 nodes
     R & G space division:  proc/nbgrp/npool/nimage =       6
     Reading input from degauss-0.07.in

     Current dimensions of program PWSCF are:
     Max number of different atomic species (ntypx) = 10
     Max number of k-points (npk) =  40000
     Max angular momentum in pseudopotentials (lmaxx) =  3
               file Cr.pbe-spn-rrkjus_psl.1.0.0.UPF: wavefunction(s)  3P renormalized
               file Cr.pbe-spn-rrkjus_psl.1.0.0.UPF: wavefunction(s)  3P renormalized

     Subspace diagonalization in iterative solution of the eigenvalue problem:
     a serial algorithm will be used

     Message from routine setup:
     DEPRECATED: symmetry with ibrav=0, use correct ibrav instead

     Parallelization info
     --------------------
     sticks:   dense  smooth     PW     G-vecs:    dense   smooth      PW
     Min         320     129     39                10576     2689     453
     Max         321     131     41                10577     2690     454
     Sum        1925     777    241                63461    16135    2721



     bravais-lattice index     =            0
     lattice parameter (alat)  =       5.4991  a.u.
     unit-cell volume          =     166.2936 (a.u.)^3
     number of atoms/cell      =            2
     number of atomic types    =            2
     number of electrons       =        28.00
     number of Kohn-Sham states=           18
     kinetic-energy cutoff     =      80.0000  Ry
     charge density cutoff     =     800.0000  Ry
     convergence threshold     =      1.0E-06
     mixing beta               =       0.7000
     number of iterations used =            8  plain     mixing
     Exchange-correlation      = PBE ( 1  4  3  4 0 0)

     celldm(1)=   5.499103  celldm(2)=   0.000000  celldm(3)=   0.000000
     celldm(4)=   0.000000  celldm(5)=   0.000000  celldm(6)=   0.000000

     crystal axes: (cart. coord. in units of alat)
               a(1) = (   1.000000   0.000000   0.000000 )  
               a(2) = (   0.000000   1.000000   0.000000 )  
               a(3) = (   0.000000   0.000000   1.000000 )  

     reciprocal axes: (cart. coord. in units 2 pi/alat)
               b(1) = (  1.000000  0.000000  0.000000 )  
               b(2) = (  0.000000  1.000000  0.000000 )  
               b(3) = (  0.000000  0.000000  1.000000 )  


     PseudoPot. # 1 for Cr read from file:
     /home/cristian/Escritorio/Proyecto_Grafeno/pseudopotenciales/Cr.pbe-spn-rrkjus_psl.1.0.0.UPF
     MD5 check sum: 793d051e4f89dd1e3290b85340a92c0a
     Pseudo is Ultrasoft + core correction, Zval = 14.0
     Generated using "atomic" code by A. Dal Corso v.6.2.2
     Using radial grid of 1183 points,  6 beta functions with: 
                l(1) =   0
                l(2) =   0
                l(3) =   1
                l(4) =   1
                l(5) =   2
                l(6) =   2
     Q(r) pseudized with 0 coefficients 


     PseudoPot. # 2 for Cr read from file:
     /home/cristian/Escritorio/Proyecto_Grafeno/pseudopotenciales/Cr.pbe-spn-rrkjus_psl.1.0.0.UPF
     MD5 check sum: 793d051e4f89dd1e3290b85340a92c0a
     Pseudo is Ultrasoft + core correction, Zval = 14.0
     Generated using "atomic" code by A. Dal Corso v.6.2.2
     Using radial grid of 1183 points,  6 beta functions with: 
                l(1) =   0
                l(2) =   0
                l(3) =   1
                l(4) =   1
                l(5) =   2
                l(6) =   2
     Q(r) pseudized with 0 coefficients 


     atomic species   valence    mass     pseudopotential
        Cr1           14.00    51.99610     Cr( 1.00)
        Cr2           14.00    51.99610     Cr( 1.00)

     Starting magnetic structure 
     atomic species   magnetization
        Cr1          0.100
        Cr2         -0.100

     48 Sym. Ops., with inversion, found



   Cartesian axes

     site n.     atom                  positions (alat units)
         1           Cr1 tau(   1) = (   0.0000000   0.0000000   0.0000000  )
         2           Cr2 tau(   2) = (   0.5000000   0.5000000   0.5000000  )

     number of k points=    35  gaussian smearing, width (Ry)=  0.0700
                       cart. coord. in units 2pi/alat
        k(    1) = (   0.0500000   0.0500000   0.0500000), wk =   0.0080000
        k(    2) = (   0.0500000   0.0500000   0.1500000), wk =   0.0240000
        k(    3) = (   0.0500000   0.0500000   0.2500000), wk =   0.0240000
        k(    4) = (   0.0500000   0.0500000   0.3500000), wk =   0.0240000
        k(    5) = (   0.0500000   0.0500000   0.4500000), wk =   0.0240000
        k(    6) = (   0.0500000   0.1500000   0.1500000), wk =   0.0240000
        k(    7) = (   0.0500000   0.1500000   0.2500000), wk =   0.0480000
        k(    8) = (   0.0500000   0.1500000   0.3500000), wk =   0.0480000
        k(    9) = (   0.0500000   0.1500000   0.4500000), wk =   0.0480000
        k(   10) = (   0.0500000   0.2500000   0.2500000), wk =   0.0240000
        k(   11) = (   0.0500000   0.2500000   0.3500000), wk =   0.0480000
        k(   12) = (   0.0500000   0.2500000   0.4500000), wk =   0.0480000
        k(   13) = (   0.0500000   0.3500000   0.3500000), wk =   0.0240000
        k(   14) = (   0.0500000   0.3500000   0.4500000), wk =   0.0480000
        k(   15) = (   0.0500000   0.4500000   0.4500000), wk =   0.0240000
        k(   16) = (   0.1500000   0.1500000   0.1500000), wk =   0.0080000
        k(   17) = (   0.1500000   0.1500000   0.2500000), wk =   0.0240000
        k(   18) = (   0.1500000   0.1500000   0.3500000), wk =   0.0240000
        k(   19) = (   0.1500000   0.1500000   0.4500000), wk =   0.0240000
        k(   20) = (   0.1500000   0.2500000   0.2500000), wk =   0.0240000
        k(   21) = (   0.1500000   0.2500000   0.3500000), wk =   0.0480000
        k(   22) = (   0.1500000   0.2500000   0.4500000), wk =   0.0480000
        k(   23) = (   0.1500000   0.3500000   0.3500000), wk =   0.0240000
        k(   24) = (   0.1500000   0.3500000   0.4500000), wk =   0.0480000
        k(   25) = (   0.1500000   0.4500000   0.4500000), wk =   0.0240000
        k(   26) = (   0.2500000   0.2500000   0.2500000), wk =   0.0080000
        k(   27) = (   0.2500000   0.2500000   0.3500000), wk =   0.0240000
        k(   28) = (   0.2500000   0.2500000   0.4500000), wk =   0.0240000
        k(   29) = (   0.2500000   0.3500000   0.3500000), wk =   0.0240000
        k(   30) = (   0.2500000   0.3500000   0.4500000), wk =   0.0480000
        k(   31) = (   0.2500000   0.4500000   0.4500000), wk =   0.0240000
        k(   32) = (   0.3500000   0.3500000   0.3500000), wk =   0.0080000
        k(   33) = (   0.3500000   0.3500000   0.4500000), wk =   0.0240000
        k(   34) = (   0.3500000   0.4500000   0.4500000), wk =   0.0240000
        k(   35) = (   0.4500000   0.4500000   0.4500000), wk =   0.0080000

     Dense  grid:    63461 G-vectors     FFT dimensions: (  50,  50,  50)

     Smooth grid:    16135 G-vectors     FFT dimensions: (  32,  32,  32)

     Estimated max dynamical RAM per process >      51.30 MB

     Estimated total dynamical RAM >     307.81 MB
     Generating pointlists ...
     new r_m :   0.3572 (alat units)  1.9645 (a.u.) for type    1
     new r_m :   0.3572 (alat units)  1.9645 (a.u.) for type    2

     Check: negative core charge=   -0.000002

     Initial potential from superposition of free atoms

     starting charge   27.99845, renormalised to   28.00000
     Starting wfcs are   20 randomized atomic wfcs

     total cpu time spent up to now is        2.3 secs

     Self-consistent Calculation

     iteration #  1     ecut=    80.00 Ry     beta= 0.70
     Davidson diagonalization with overlap
     ethr =  1.00E-02,  avg # of iterations =  2.5

     Threshold (ethr) on eigenvalues was too large:
     Diagonalizing with lowered threshold

     Davidson diagonalization with overlap
     ethr =  5.67E-04,  avg # of iterations =  2.4

     total cpu time spent up to now is        5.0 secs

     total energy              =    -349.93644986 Ry
     Harris-Foulkes estimate   =    -350.04701863 Ry
     estimated scf accuracy    <       0.17197957 Ry

     total magnetization       =     0.00 Bohr mag/cell
     absolute magnetization    =     2.01 Bohr mag/cell

     iteration #  2     ecut=    80.00 Ry     beta= 0.70
     Davidson diagonalization with overlap
     ethr =  6.14E-04,  avg # of iterations =  3.1

     total cpu time spent up to now is        7.1 secs

     total energy              =    -349.95967135 Ry
     Harris-Foulkes estimate   =    -350.07646955 Ry
     estimated scf accuracy    <       0.25352967 Ry

     total magnetization       =    -0.00 Bohr mag/cell
     absolute magnetization    =     2.35 Bohr mag/cell

     iteration #  3     ecut=    80.00 Ry     beta= 0.70
     Davidson diagonalization with overlap
     ethr =  6.14E-04,  avg # of iterations =  3.0

     total cpu time spent up to now is        8.8 secs

     total energy              =    -350.01263874 Ry
     Harris-Foulkes estimate   =    -350.01276375 Ry
     estimated scf accuracy    <       0.00252380 Ry

     total magnetization       =     0.00 Bohr mag/cell
     absolute magnetization    =     2.08 Bohr mag/cell

     iteration #  4     ecut=    80.00 Ry     beta= 0.70
     Davidson diagonalization with overlap
     ethr =  9.01E-06,  avg # of iterations =  4.0

     total cpu time spent up to now is       10.9 secs

     total energy              =    -350.01084103 Ry
     Harris-Foulkes estimate   =    -350.01628219 Ry
     estimated scf accuracy    <       0.06068833 Ry

     total magnetization       =    -0.02 Bohr mag/cell
     absolute magnetization    =     1.99 Bohr mag/cell

     iteration #  5     ecut=    80.00 Ry     beta= 0.70
     Davidson diagonalization with overlap
     ethr =  9.01E-06,  avg # of iterations =  3.6

     total cpu time spent up to now is       12.7 secs

     total energy              =    -350.01361019 Ry
     Harris-Foulkes estimate   =    -350.01353757 Ry
     estimated scf accuracy    <       0.00011528 Ry

     total magnetization       =     0.00 Bohr mag/cell
     absolute magnetization    =     1.99 Bohr mag/cell

     iteration #  6     ecut=    80.00 Ry     beta= 0.70
     Davidson diagonalization with overlap
     ethr =  4.12E-07,  avg # of iterations =  4.0

     total cpu time spent up to now is       14.4 secs

     total energy              =    -350.01366377 Ry
     Harris-Foulkes estimate   =    -350.01373937 Ry
     estimated scf accuracy    <       0.00006872 Ry

     total magnetization       =     0.00 Bohr mag/cell
     absolute magnetization    =     1.88 Bohr mag/cell

     iteration #  7     ecut=    80.00 Ry     beta= 0.70
     Davidson diagonalization with overlap
     ethr =  2.45E-07,  avg # of iterations =  4.2

     total cpu time spent up to now is       16.3 secs

     total energy              =    -350.01232164 Ry
     Harris-Foulkes estimate   =    -350.01398750 Ry
     estimated scf accuracy    <       0.00003450 Ry

     total magnetization       =    -0.00 Bohr mag/cell
     absolute magnetization    =     1.70 Bohr mag/cell

     iteration #  8     ecut=    80.00 Ry     beta= 0.70
     Davidson diagonalization with overlap
     ethr =  1.23E-07,  avg # of iterations =  5.1

     total cpu time spent up to now is       18.8 secs

     total energy              =    -350.00943540 Ry
     Harris-Foulkes estimate   =    -350.01439929 Ry
     estimated scf accuracy    <       0.00001252 Ry

     total magnetization       =    -0.00 Bohr mag/cell
     absolute magnetization    =     1.23 Bohr mag/cell

     iteration #  9     ecut=    80.00 Ry     beta= 0.70
     Davidson diagonalization with overlap
     ethr =  4.47E-08,  avg # of iterations =  5.1

     total cpu time spent up to now is       21.6 secs

     total energy              =    -350.01264679 Ry
     Harris-Foulkes estimate   =    -350.01465129 Ry
     estimated scf accuracy    <       0.00001558 Ry

     total magnetization       =    -0.00 Bohr mag/cell
     absolute magnetization    =     0.48 Bohr mag/cell

     iteration # 10     ecut=    80.00 Ry     beta= 0.70
     Davidson diagonalization with overlap
     ethr =  4.47E-08,  avg # of iterations =  5.0

     total cpu time spent up to now is       24.3 secs

     total energy              =    -350.01378771 Ry
     Harris-Foulkes estimate   =    -350.01468329 Ry
     estimated scf accuracy    <       0.00000739 Ry

     total magnetization       =    -0.00 Bohr mag/cell
     absolute magnetization    =     0.01 Bohr mag/cell

     iteration # 11     ecut=    80.00 Ry     beta= 0.70
     Davidson diagonalization with overlap
     ethr =  2.64E-08,  avg # of iterations =  5.0

     Magnetic moment per site:
     atom:    1    charge:   12.2772    magn:   -0.1387    constr:    0.0000
     atom:    2    charge:   12.2771    magn:    0.1386    constr:    0.0000

     total cpu time spent up to now is       27.0 secs

     End of self-consistent calculation

 ------ SPIN UP ------------


          k = 0.0500 0.0500 0.0500 (  2007 PWs)   bands (ev):

   -53.6816 -53.3764 -25.0658 -25.0658 -25.0401 -24.5463 -24.5191 -24.5191
    10.6095  14.2981  14.2981  17.3375  17.3375  17.5021  19.2529  19.2529
    20.1509  20.4341

          k = 0.0500 0.0500 0.1500 (  2005 PWs)   bands (ev):

   -53.6684 -53.3854 -25.0801 -25.0399 -25.0030 -24.6050 -24.5421 -24.5297
    11.0158  14.5043  14.5049  17.2500  17.3097  17.7116  18.9994  19.3639
    19.5894  19.9644

          k = 0.0500 0.0500 0.2500 (  1997 PWs)   bands (ev):

   -53.6448 -53.4022 -25.0821 -24.9918 -24.9546 -24.6909 -24.5854 -24.5652
    11.7805  14.8050  14.9031  17.2224  17.2774  18.0122  18.5365  18.9128
    19.2899  19.5582

          k = 0.0500 0.0500 0.3500 (  2010 PWs)   bands (ev):

   -53.6170 -53.4233 -25.0662 -24.9298 -24.9109 -24.7726 -24.6427 -24.6180
    12.7956  14.9595  15.4653  17.2170  17.2949  18.0036  18.2708  18.4281
    18.6384  19.7785

          k = 0.0500 0.0500 0.4500 (  2013 PWs)   bands (ev):

   -53.5961 -53.4400 -25.0337 -24.9270 -24.8732 -24.7801 -24.6964 -24.6729
    13.8618  14.6705  16.1382  16.8262  17.4951  17.8325  17.8330  18.1361
    18.8540  19.3325

          k = 0.0500 0.1500 0.1500 (  2001 PWs)   bands (ev):

   -53.6565 -53.3930 -25.1072 -25.0256 -24.9523 -24.6759 -24.5599 -24.5210
    11.4031  14.6657  14.7362  17.0446  17.2160  18.0512  18.9343  19.0318
    19.2965  19.6460

          k = 0.0500 0.1500 0.2500 (  1999 PWs)   bands (ev):

   -53.6355 -53.4072 -25.1290 -24.9820 -24.9134 -24.7513 -24.5985 -24.5353
    12.1233  14.9201  15.1250  16.8933  17.1092  18.2305  18.4933  18.7832
    19.0697  19.4589

          k = 0.0500 0.1500 0.3500 (  2004 PWs)   bands (ev):

   -53.6111 -53.4246 -25.1282 -24.9500 -24.9218 -24.7543 -24.6499 -24.5727
    13.0575  15.0365  15.6069  16.8433  16.9959  17.6972  18.4557  18.5996
    18.9437  19.7330

          k = 0.0500 0.1500 0.4500 (  2011 PWs)   bands (ev):

   -53.5933 -53.4382 -25.1001 -25.0228 -24.8719 -24.7044 -24.6958 -24.6234
    14.0087  14.7336  16.1444  16.6278  17.0456  17.3090  18.3007  18.3819
    19.3915  19.8001

          k = 0.0500 0.2500 0.2500 (  2007 PWs)   bands (ev):

   -53.6193 -53.4163 -25.1742 -24.9596 -24.9404 -24.7485 -24.6266 -24.5237
    12.7338  14.9755  15.5921  16.6072  16.9938  17.6009  18.7072  18.9736
    19.0299  19.3811

          k = 0.0500 0.2500 0.3500 (  2005 PWs)   bands (ev):

   -53.6012 -53.4272 -25.1956 -25.0464 -24.9016 -24.6925 -24.6623 -24.5376
    13.4583  14.8893  16.1224  16.4587  16.9950  17.0926  18.5715  18.9110
    19.5081  19.6218

          k = 0.0500 0.2500 0.4500 (  2017 PWs)   bands (ev):

   -53.5887 -53.4354 -25.1832 -25.1279 -24.8644 -24.6974 -24.6293 -24.5727
    14.1118  14.5960  16.4667  16.5148  16.8124  16.9646  18.6878  18.8220
    19.8401  20.2448

          k = 0.0500 0.3500 0.3500 (  2016 PWs)   bands (ev):

   -53.5908 -53.4303 -25.2409 -25.1441 -24.8756 -24.6825 -24.6256 -24.5262
    13.8178  14.6148  16.2042  16.5929  16.8236  17.3871  18.7223  19.1627
    19.4925  20.1093

          k = 0.0500 0.3500 0.4500 (  2018 PWs)   bands (ev):

   -53.5841 -53.4325 -25.2499 -25.2159 -24.8564 -24.6956 -24.5743 -24.5390
    14.0832  14.3335  16.1331  16.2647  17.4528  17.7319  18.9814  19.1664
    19.7994  20.4537

          k = 0.0500 0.4500 0.4500 (  2011 PWs)   bands (ev):

   -53.5812 -53.4307 -25.2819 -25.2703 -24.8512 -24.6946 -24.5398 -24.5277
    14.0537  14.1321  15.9689  16.0141  18.3384  18.6313  19.1955  19.2934
    19.5755  20.1371

          k = 0.1500 0.1500 0.1500 (  1992 PWs)   bands (ev):

   -53.6458 -53.3994 -25.0792 -25.0792 -24.9065 -24.7257 -24.5460 -24.5460
    11.7787  14.8935  14.8935  16.9546  16.9546  18.1794  18.4663  19.1688
    19.1688  20.0468

          k = 0.1500 0.1500 0.2500 (  2000 PWs)   bands (ev):

   -53.6271 -53.4111 -25.1210 -25.0272 -24.9161 -24.7446 -24.5933 -24.5465
    12.4702  15.1879  15.2074  16.7656  16.8011  17.5357  18.9381  18.9446
    19.3938  19.4341

          k = 0.1500 0.1500 0.3500 (  2007 PWs)   bands (ev):

   -53.6058 -53.4255 -25.1384 -24.9896 -24.9595 -24.7056 -24.6563 -24.5651
    13.3483  15.2853  15.5761  16.6039  16.7580  17.1773  18.6748  18.8997
    19.4180  19.7279

          k = 0.1500 0.1500 0.4500 (  2008 PWs)   bands (ev):

   -53.5906 -53.4364 -25.1255 -25.0623 -24.8964 -24.7166 -24.6575 -24.5967
    14.2197  14.9094  15.9880  16.3430  16.9235  17.0839  18.5041  18.5767
    19.6368  19.8354

          k = 0.1500 0.2500 0.2500 (  2005 PWs)   bands (ev):

   -53.6127 -53.4184 -25.1429 -25.0156 -24.9803 -24.7029 -24.6182 -24.5521
    13.0847  15.2730  15.6497  16.4987  16.6465  16.9298  19.0946  19.2404
    19.3535  19.5319

          k = 0.1500 0.2500 0.3500 (  2005 PWs)   bands (ev):

   -53.5969 -53.4270 -25.1707 -25.0648 -24.9562 -24.6748 -24.6498 -24.5587
    13.7981  15.1972  16.0075  16.3322  16.6315  16.7108  18.9530  19.0008
    19.5303  20.1110

          k = 0.1500 0.2500 0.4500 (  2011 PWs)   bands (ev):

   -53.5861 -53.4334 -25.1719 -25.1296 -24.8998 -24.7245 -24.6133 -24.5746
    14.4143  14.8795  16.1355  16.2245  16.7706  16.8368  18.8559  18.8889
    19.7077  19.9261

          k = 0.1500 0.3500 0.3500 (  2017 PWs)   bands (ev):

   -53.5877 -53.4290 -25.2064 -25.1408 -24.9222 -24.6982 -24.6098 -24.5581
    14.1792  14.9087  16.1189  16.3209  16.7083  16.8854  18.9882  19.2140
    19.5001  20.1354

          k = 0.1500 0.3500 0.4500 (  2018 PWs)   bands (ev):

   -53.5817 -53.4304 -25.2193 -25.1956 -24.8879 -24.7232 -24.5827 -24.5639
    14.4161  14.6352  16.0400  16.1153  17.2007  17.2692  19.1064  19.2037
    19.6490  19.9452

          k = 0.1500 0.4500 0.4500 (  2021 PWs)   bands (ev):

   -53.5790 -53.4285 -25.2455 -25.2377 -24.8769 -24.7201 -24.5667 -24.5617
    14.3777  14.4454  15.9087  15.9409  17.8343  17.8891  19.2723  19.3395
    19.5729  19.7778

          k = 0.2500 0.2500 0.2500 (  2022 PWs)   bands (ev):

   -53.6016 -53.4223 -25.0845 -25.0845 -25.0388 -24.6555 -24.6061 -24.6061
    13.6971  15.7431  15.7431  16.2927  16.3293  16.3293  19.2892  19.2892
    19.6307  19.6307

          k = 0.2500 0.2500 0.3500 (  2011 PWs)   bands (ev):

   -53.5898 -53.4269 -25.1375 -25.0983 -25.0078 -24.6781 -24.6222 -24.5940
    14.3590  15.6013  15.8410  16.1597  16.2757  16.4082  19.1926  19.2624
    19.4995  19.7853

          k = 0.2500 0.2500 0.4500 (  2009 PWs)   bands (ev):

   -53.5820 -53.4301 -25.1624 -25.1388 -24.9341 -24.7490 -24.6066 -24.5857
    14.8308  15.1878  15.9279  16.0282  16.5202  16.6784  19.0918  19.1145
    19.6425  19.7735

          k = 0.2500 0.3500 0.3500 (  2012 PWs)   bands (ev):

   -53.5825 -53.4268 -25.1417 -25.1379 -24.9905 -24.7072 -24.6184 -24.6048
    14.8237  15.3452  15.9968  16.0568  16.3059  16.4928  19.2962  19.3546
    19.5013  19.7359

          k = 0.2500 0.3500 0.4500 (  2015 PWs)   bands (ev):

   -53.5779 -53.4269 -25.1678 -25.1588 -24.9356 -24.7585 -24.6161 -24.6024
    14.9797  15.1093  15.9257  15.9687  16.6736  16.8055  19.2876  19.3459
    19.5932  19.7236

          k = 0.2500 0.4500 0.4500 (  2023 PWs)   bands (ev):

   -53.5754 -53.4249 -25.1780 -25.1770 -24.9184 -24.7597 -24.6260 -24.6186
    14.9344  14.9826  15.8318  15.8599  17.1131  17.1613  19.3900  19.4604
    19.5639  19.6918

          k = 0.3500 0.3500 0.3500 (  2010 PWs)   bands (ev):

   -53.5773 -53.4247 -25.1365 -25.0561 -25.0561 -24.6996 -24.6996 -24.6174
    15.4450  15.5357  15.9055  15.9055  16.2370  16.2370  19.4728  19.4728
    19.5565  19.5565

          k = 0.3500 0.3500 0.4500 (  2007 PWs)   bands (ev):

   -53.5741 -53.4235 -25.1298 -25.1032 -24.9719 -24.7812 -24.6760 -24.6433
    15.3915  15.4876  15.8982  16.0282  16.2871  16.4900  19.4348  19.5158
    19.5608  19.6701

          k = 0.3500 0.4500 0.4500 (  2006 PWs)   bands (ev):

   -53.5718 -53.4213 -25.1031 -25.0861 -24.9611 -24.7944 -24.7127 -24.6886
    15.4657  15.5767  15.8045  15.9096  16.4973  16.5714  19.5005  19.5626
    19.5979  19.6857

          k = 0.4500 0.4500 0.4500 (  1974 PWs)   bands (ev):

   -53.5695 -53.4191 -25.0356 -24.9953 -24.9953 -24.8009 -24.8009 -24.7597
    15.7082  15.8873  15.8873  16.1501  16.1501  16.1803  19.5663  19.5663
    19.6903  19.6903

 ------ SPIN DOWN ----------


          k = 0.0500 0.0500 0.0500 (  2007 PWs)   bands (ev):

   -53.6817 -53.3764 -25.0658 -25.0658 -25.0401 -24.5463 -24.5191 -24.5191
    10.6094  14.2981  14.2981  17.3375  17.3375  17.5020  19.2529  19.2529
    20.1508  20.4340

          k = 0.0500 0.0500 0.1500 (  2005 PWs)   bands (ev):

   -53.6685 -53.3854 -25.0802 -25.0399 -25.0031 -24.6050 -24.5421 -24.5297
    11.0158  14.5042  14.5049  17.2499  17.3096  17.7116  18.9994  19.3638
    19.5894  19.9644

          k = 0.0500 0.0500 0.2500 (  1997 PWs)   bands (ev):

   -53.6449 -53.4023 -25.0822 -24.9918 -24.9546 -24.6909 -24.5855 -24.5652
    11.7805  14.8050  14.9030  17.2224  17.2773  18.0121  18.5365  18.9128
    19.2898  19.5582

          k = 0.0500 0.0500 0.3500 (  2010 PWs)   bands (ev):

   -53.6171 -53.4233 -25.0662 -24.9299 -24.9109 -24.7726 -24.6428 -24.6180
    12.7956  14.9595  15.4652  17.2169  17.2948  18.0036  18.2708  18.4281
    18.6384  19.7784

          k = 0.0500 0.0500 0.4500 (  2013 PWs)   bands (ev):

   -53.5962 -53.4400 -25.0337 -24.9271 -24.8732 -24.7802 -24.6964 -24.6729
    13.8617  14.6704  16.1381  16.8261  17.4951  17.8325  17.8330  18.1361
    18.8540  19.3325

          k = 0.0500 0.1500 0.1500 (  2001 PWs)   bands (ev):

   -53.6566 -53.3931 -25.1072 -25.0256 -24.9523 -24.6759 -24.5599 -24.5210
    11.4030  14.6657  14.7362  17.0446  17.2160  18.0512  18.9343  19.0318
    19.2965  19.6460

          k = 0.0500 0.1500 0.2500 (  1999 PWs)   bands (ev):

   -53.6355 -53.4072 -25.1290 -24.9820 -24.9135 -24.7513 -24.5985 -24.5353
    12.1233  14.9201  15.1250  16.8932  17.1091  18.2304  18.4933  18.7832
    19.0697  19.4589

          k = 0.0500 0.1500 0.3500 (  2004 PWs)   bands (ev):

   -53.6112 -53.4247 -25.1282 -24.9500 -24.9218 -24.7543 -24.6499 -24.5727
    13.0574  15.0364  15.6069  16.8433  16.9958  17.6972  18.4557  18.5995
    18.9437  19.7330

          k = 0.0500 0.1500 0.4500 (  2011 PWs)   bands (ev):

   -53.5933 -53.4382 -25.1001 -25.0228 -24.8719 -24.7044 -24.6958 -24.6234
    14.0087  14.7336  16.1444  16.6278  17.0456  17.3089  18.3007  18.3819
    19.3914  19.8000

          k = 0.0500 0.2500 0.2500 (  2007 PWs)   bands (ev):

   -53.6193 -53.4163 -25.1743 -24.9596 -24.9405 -24.7485 -24.6266 -24.5237
    12.7337  14.9755  15.5920  16.6072  16.9938  17.6009  18.7072  18.9736
    19.0299  19.3810

          k = 0.0500 0.2500 0.3500 (  2005 PWs)   bands (ev):

   -53.6013 -53.4272 -25.1956 -25.0465 -24.9016 -24.6925 -24.6623 -24.5376
    13.4583  14.8893  16.1223  16.4586  16.9950  17.0925  18.5715  18.9110
    19.5080  19.6218

          k = 0.0500 0.2500 0.4500 (  2017 PWs)   bands (ev):

   -53.5887 -53.4354 -25.1832 -25.1279 -24.8645 -24.6974 -24.6294 -24.5727
    14.1118  14.5960  16.4667  16.5148  16.8123  16.9646  18.6878  18.8220
    19.8401  20.2447

          k = 0.0500 0.3500 0.3500 (  2016 PWs)   bands (ev):

   -53.5909 -53.4303 -25.2409 -25.1442 -24.8757 -24.6825 -24.6256 -24.5263
    13.8178  14.6148  16.2041  16.5929  16.8236  17.3870  18.7223  19.1626
    19.4925  20.1093

          k = 0.0500 0.3500 0.4500 (  2018 PWs)   bands (ev):

   -53.5841 -53.4325 -25.2500 -25.2159 -24.8564 -24.6957 -24.5743 -24.5391
    14.0832  14.3335  16.1330  16.2646  17.4528  17.7318  18.9814  19.1663
    19.7993  20.4536

          k = 0.0500 0.4500 0.4500 (  2011 PWs)   bands (ev):

   -53.5813 -53.4307 -25.2819 -25.2704 -24.8513 -24.6946 -24.5398 -24.5278
    14.0537  14.1321  15.9689  16.0140  18.3384  18.6312  19.1954  19.2934
    19.5754  20.1370

          k = 0.1500 0.1500 0.1500 (  1992 PWs)   bands (ev):

   -53.6459 -53.3994 -25.0793 -25.0793 -24.9065 -24.7257 -24.5460 -24.5460
    11.7787  14.8935  14.8935  16.9545  16.9545  18.1794  18.4662  19.1687
    19.1687  20.0467

          k = 0.1500 0.1500 0.2500 (  2000 PWs)   bands (ev):

   -53.6272 -53.4112 -25.1211 -25.0272 -24.9162 -24.7446 -24.5933 -24.5465
    12.4701  15.1879  15.2074  16.7655  16.8011  17.5357  18.9381  18.9445
    19.3937  19.4341

          k = 0.1500 0.1500 0.3500 (  2007 PWs)   bands (ev):

   -53.6058 -53.4255 -25.1384 -24.9896 -24.9596 -24.7056 -24.6564 -24.5651
    13.3483  15.2853  15.5761  16.6039  16.7580  17.1773  18.6748  18.8997
    19.4180  19.7278

          k = 0.1500 0.1500 0.4500 (  2008 PWs)   bands (ev):

   -53.5906 -53.4364 -25.1255 -25.0623 -24.8964 -24.7166 -24.6575 -24.5967
    14.2197  14.9094  15.9880  16.3429  16.9234  17.0839  18.5041  18.5766
    19.6368  19.8354

          k = 0.1500 0.2500 0.2500 (  2005 PWs)   bands (ev):

   -53.6128 -53.4184 -25.1430 -25.0157 -24.9803 -24.7029 -24.6183 -24.5521
    13.0846  15.2730  15.6496  16.4986  16.6465  16.9298  19.0946  19.2404
    19.3534  19.5318

          k = 0.1500 0.2500 0.3500 (  2005 PWs)   bands (ev):

   -53.5970 -53.4270 -25.1707 -25.0649 -24.9562 -24.6748 -24.6498 -24.5588
    13.7980  15.1972  16.0075  16.3322  16.6314  16.7108  18.9530  19.0008
    19.5303  20.1110

          k = 0.1500 0.2500 0.4500 (  2011 PWs)   bands (ev):

   -53.5862 -53.4334 -25.1720 -25.1297 -24.8999 -24.7245 -24.6134 -24.5747
    14.4142  14.8794  16.1354  16.2244  16.7705  16.8368  18.8559  18.8889
    19.7077  19.9260

          k = 0.1500 0.3500 0.3500 (  2017 PWs)   bands (ev):

   -53.5877 -53.4290 -25.2064 -25.1408 -24.9222 -24.6982 -24.6098 -24.5582
    14.1791  14.9087  16.1189  16.3208  16.7082  16.8854  18.9882  19.2140
    19.5000  20.1354

          k = 0.1500 0.3500 0.4500 (  2018 PWs)   bands (ev):

   -53.5818 -53.4304 -25.2193 -25.1957 -24.8879 -24.7232 -24.5827 -24.5639
    14.4161  14.6352  16.0400  16.1153  17.2007  17.2691  19.1063  19.2037
    19.6490  19.9452

          k = 0.1500 0.4500 0.4500 (  2021 PWs)   bands (ev):

   -53.5791 -53.4285 -25.2455 -25.2378 -24.8770 -24.7201 -24.5668 -24.5617
    14.3777  14.4454  15.9086  15.9409  17.8343  17.8891  19.2723  19.3395
    19.5729  19.7778

          k = 0.2500 0.2500 0.2500 (  2022 PWs)   bands (ev):

   -53.6017 -53.4223 -25.0846 -25.0846 -25.0388 -24.6555 -24.6061 -24.6061
    13.6970  15.7431  15.7431  16.2927  16.3293  16.3293  19.2892  19.2892
    19.6307  19.6307

          k = 0.2500 0.2500 0.3500 (  2011 PWs)   bands (ev):

   -53.5898 -53.4269 -25.1376 -25.0984 -25.0078 -24.6781 -24.6222 -24.5940
    14.3590  15.6013  15.8410  16.1597  16.2757  16.4082  19.1926  19.2624
    19.4995  19.7853

          k = 0.2500 0.2500 0.4500 (  2009 PWs)   bands (ev):

   -53.5821 -53.4301 -25.1624 -25.1389 -24.9341 -24.7490 -24.6066 -24.5858
    14.8308  15.1877  15.9279  16.0281  16.5201  16.6784  19.0917  19.1145
    19.6424  19.7735

          k = 0.2500 0.3500 0.3500 (  2012 PWs)   bands (ev):

   -53.5826 -53.4268 -25.1417 -25.1379 -24.9906 -24.7072 -24.6185 -24.6048
    14.8237  15.3452  15.9968  16.0568  16.3058  16.4928  19.2962  19.3546
    19.5013  19.7359

          k = 0.2500 0.3500 0.4500 (  2015 PWs)   bands (ev):

   -53.5780 -53.4269 -25.1678 -25.1589 -24.9356 -24.7585 -24.6161 -24.6024
    14.9797  15.1093  15.9256  15.9687  16.6736  16.8055  19.2875  19.3459
    19.5932  19.7236

          k = 0.2500 0.4500 0.4500 (  2023 PWs)   bands (ev):

   -53.5754 -53.4249 -25.1780 -25.1771 -24.9185 -24.7597 -24.6261 -24.6187
    14.9343  14.9825  15.8318  15.8599  17.1130  17.1612  19.3899  19.4604
    19.5639  19.6918

          k = 0.3500 0.3500 0.3500 (  2010 PWs)   bands (ev):

   -53.5774 -53.4247 -25.1365 -25.0562 -25.0562 -24.6996 -24.6996 -24.6174
    15.4449  15.5356  15.9054  15.9054  16.2370  16.2370  19.4728  19.4728
    19.5565  19.5565

          k = 0.3500 0.3500 0.4500 (  2007 PWs)   bands (ev):

   -53.5742 -53.4235 -25.1298 -25.1032 -24.9719 -24.7812 -24.6760 -24.6433
    15.3915  15.4876  15.8982  16.0282  16.2871  16.4900  19.4348  19.5158
    19.5607  19.6701

          k = 0.3500 0.4500 0.4500 (  2006 PWs)   bands (ev):

   -53.5718 -53.4213 -25.1032 -25.0861 -24.9611 -24.7944 -24.7128 -24.6887
    15.4657  15.5767  15.8045  15.9096  16.4972  16.5714  19.5004  19.5625
    19.5979  19.6857

          k = 0.4500 0.4500 0.4500 (  1974 PWs)   bands (ev):

   -53.5696 -53.4191 -25.0357 -24.9953 -24.9953 -24.8009 -24.8009 -24.7597
    15.7081  15.8872  15.8872  16.1501  16.1501  16.1802  19.5662  19.5662
    19.6903  19.6903

     the Fermi energy is    18.0645 ev

!    total energy              =    -350.01467181 Ry
     Harris-Foulkes estimate   =    -350.01467194 Ry
     estimated scf accuracy    <       0.00000063 Ry

     The total energy is the sum of the following terms:

     one-electron contribution =    -121.55174916 Ry
     hartree contribution      =      75.50564511 Ry
     xc contribution           =     -44.46841394 Ry
     ewald contribution        =    -259.42040003 Ry
     smearing contrib. (-TS)   =      -0.07975378 Ry

     total magnetization       =    -0.00 Bohr mag/cell
     absolute magnetization    =     0.30 Bohr mag/cell

     convergence has been achieved in  11 iterations

     Writing output data file degauss-0.07.save/

     init_run     :      0.85s CPU      0.88s WALL (       1 calls)
     electrons    :     24.14s CPU     24.63s WALL (       1 calls)

     Called by init_run:
     wfcinit      :      0.42s CPU      0.43s WALL (       1 calls)
     potinit      :      0.06s CPU      0.06s WALL (       1 calls)
     hinit0       :      0.25s CPU      0.25s WALL (       1 calls)

     Called by electrons:
     c_bands      :     20.02s CPU     20.43s WALL (      12 calls)
     sum_band     :      2.98s CPU      3.05s WALL (      12 calls)
     v_of_rho     :      0.41s CPU      0.43s WALL (      12 calls)
     newd         :      0.72s CPU      0.75s WALL (      12 calls)
     mix_rho      :      0.04s CPU      0.04s WALL (      12 calls)

     Called by c_bands:
     init_us_2    :      0.24s CPU      0.25s WALL (    1750 calls)
     cegterg      :     19.13s CPU     19.53s WALL (     840 calls)

     Called by sum_band:
     sum_band:bec :      0.02s CPU      0.02s WALL (     840 calls)
     addusdens    :      1.24s CPU      1.24s WALL (      12 calls)

     Called by *egterg:
     h_psi        :      9.59s CPU      9.80s WALL (    4195 calls)
     s_psi        :      1.07s CPU      1.10s WALL (    4195 calls)
     g_psi        :      0.10s CPU      0.10s WALL (    3285 calls)
     cdiaghg      :      2.81s CPU      2.86s WALL (    4055 calls)

     Called by h_psi:
     h_psi:pot    :      9.54s CPU      9.76s WALL (    4195 calls)
     h_psi:calbec :      1.45s CPU      1.49s WALL (    4195 calls)
     vloc_psi     :      7.02s CPU      7.17s WALL (    4195 calls)
     add_vuspsi   :      1.07s CPU      1.10s WALL (    4195 calls)

     General routines
     calbec       :      1.84s CPU      1.91s WALL (    5035 calls)
     fft          :      0.20s CPU      0.21s WALL (     296 calls)
     ffts         :      0.01s CPU      0.01s WALL (      48 calls)
     fftw         :      6.96s CPU      7.12s WALL (  117478 calls)
     interpolate  :      0.02s CPU      0.02s WALL (      24 calls)

     Parallel routines
     fft_scatt_xy :      0.94s CPU      0.95s WALL (  117822 calls)
     fft_scatt_yz :      3.50s CPU      3.58s WALL (  117822 calls)

     PWSCF        :     26.51s CPU     27.07s WALL


   This run was terminated on:  23:55:28   9Mar2022            

=------------------------------------------------------------------------------=
   JOB DONE.
=------------------------------------------------------------------------------=
