
     Program PWSCF v.6.4.1 starts on 19Jul2022 at 13:26:38 

     This program is part of the open-source Quantum ESPRESSO suite
     for quantum simulation of materials; please cite
         "P. Giannozzi et al., J. Phys.:Condens. Matter 21 395502 (2009);
         "P. Giannozzi et al., J. Phys.:Condens. Matter 29 465901 (2017);
          URL http://www.quantum-espresso.org", 
     in publications or presentations arising from this work. More details at
     http://www.quantum-espresso.org/quote

     Parallel version (MPI), running on     6 processors

     MPI processes distributed on     1 nodes
     R & G space division:  proc/nbgrp/npool/nimage =       6
     Reading input from distance-2.4.in

     Current dimensions of program PWSCF are:
     Max number of different atomic species (ntypx) = 10
     Max number of k-points (npk) =  40000
     Max angular momentum in pseudopotentials (lmaxx) =  3

     IMPORTANT: XC functional enforced from input :
     Exchange-correlation      = RVV10 ( 1  4 13  4 3 0)
     Any further DFT definition will be discarded
     Please, verify this is what you really want

               file H.pbe-rrkjus.UPF: wavefunction(s)  1S renormalized
               file Cu.pbe-dn-rrkjus_psl.1.0.0.UPF: wavefunction(s)  3D renormalized

     Subspace diagonalization in iterative solution of the eigenvalue problem:
     a serial algorithm will be used


     Parallelization info
     --------------------
     sticks:   dense  smooth     PW     G-vecs:    dense   smooth      PW
     Min        3051    1746    432               270999   117096   14629
     Max        3053    1747    437               271001   117099   14630
     Sum       18313   10477   2611              1626001   702581   87777



     bravais-lattice index     =            4
     lattice parameter (alat)  =      23.2937  a.u.
     unit-cell volume          =    8879.8548 (a.u.)^3
     number of atoms/cell      =           52
     number of atomic types    =            3
     number of electrons       =       209.00
     number of Kohn-Sham states=          126
     kinetic-energy cutoff     =      70.0000  Ry
     charge density cutoff     =     490.0000  Ry
     convergence threshold     =      1.0E-06
     mixing beta               =       0.7000
     number of iterations used =            8  plain     mixing
     Exchange-correlation      = RVV10 ( 1  4 13  4 3 0)

     celldm(1)=  23.293684  celldm(2)=   0.000000  celldm(3)=   0.811261
     celldm(4)=   0.000000  celldm(5)=   0.000000  celldm(6)=   0.000000

     crystal axes: (cart. coord. in units of alat)
               a(1) = (   1.000000   0.000000   0.000000 )  
               a(2) = (  -0.500000   0.866025   0.000000 )  
               a(3) = (   0.000000   0.000000   0.811261 )  

     reciprocal axes: (cart. coord. in units 2 pi/alat)
               b(1) = (  1.000000  0.577350 -0.000000 )  
               b(2) = (  0.000000  1.154701  0.000000 )  
               b(3) = (  0.000000 -0.000000  1.232649 )  


     PseudoPot. # 1 for H  read from file:
     /home/cristian/Escritorio/Proyecto_Grafeno/pseudopotenciales/H.pbe-rrkjus.UPF
     MD5 check sum: 7cc9d459525c9a0585f487a71c3c9563
     Pseudo is Ultrasoft, Zval =  1.0
     Generated by new atomic code, or converted to UPF format
     Using radial grid of 1061 points,  2 beta functions with: 
                l(1) =   0
                l(2) =   0
     Q(r) pseudized with 0 coefficients 


     PseudoPot. # 2 for C  read from file:
     /home/cristian/Escritorio/Proyecto_Grafeno/pseudopotenciales/C.pbe-n-rrkjus_psl.1.0.0.UPF
     MD5 check sum: 1fdd950c42eb37d8afe3dd2f8d12311e
     Pseudo is Ultrasoft + core correction, Zval =  4.0
     Generated using "atomic" code by A. Dal Corso v.6.3MaX
     Using radial grid of 1073 points,  4 beta functions with: 
                l(1) =   0
                l(2) =   0
                l(3) =   1
                l(4) =   1
     Q(r) pseudized with 0 coefficients 


     PseudoPot. # 3 for Cu read from file:
     /home/cristian/Escritorio/Proyecto_Grafeno/pseudopotenciales/Cu.pbe-dn-rrkjus_psl.1.0.0.UPF
     MD5 check sum: ba3d6c84e19846e79d48cdc68ff7152b
     Pseudo is Ultrasoft + core correction, Zval = 11.0
     Generated using "atomic" code by A. Dal Corso v.6.3
     Using radial grid of 1199 points,  6 beta functions with: 
                l(1) =   0
                l(2) =   0
                l(3) =   1
                l(4) =   1
                l(5) =   2
                l(6) =   2
     Q(r) pseudized with 0 coefficients 


     vdW kernel table read from file rVV10_kernel_table
     MD5 check sum: b8e2538accc0c0b3206b45ba4daaba6c

     atomic species   valence    mass     pseudopotential
        H              1.00     1.00794     H ( 1.00)
        C              4.00    12.01070     C ( 1.00)
        Cu            11.00    63.54600     Cu( 1.00)

     No symmetry found


                                    s                        frac. trans.

      isym =  1     identity                                     

 cryst.   s( 1) = (     1          0          0      )
                  (     0          1          0      )
                  (     0          0          1      )

 cart.    s( 1) = (  1.0000000  0.0000000  0.0000000 )
                  (  0.0000000  1.0000000  0.0000000 )
                  (  0.0000000  0.0000000  1.0000000 )


     point group C_1 (1)    
     there are  1 classes
     the character table:

       E    
A      1.00

     the symmetry operations in each class and the name of the first element:

     E        1
          identity                                               

   Cartesian axes

     site n.     atom                  positions (alat units)
         1           H   tau(   1) = (   0.2666667   0.4618802   0.1947027  )
         2           H   tau(   2) = (   0.2666667   0.4618802   0.2557154  )
         3           C   tau(   3) = (   0.0000000   0.0000000   0.0000000  )
         4           C   tau(   4) = (   0.0000000   0.1154701   0.0000000  )
         5           C   tau(   5) = (  -0.1000000   0.1732051   0.0000000  )
         6           C   tau(   6) = (  -0.1000000   0.2886751   0.0000000  )
         7           C   tau(   7) = (  -0.2000000   0.3464102   0.0000000  )
         8           C   tau(   8) = (  -0.2000000   0.4618802   0.0000000  )
         9           C   tau(   9) = (  -0.3000000   0.5196152   0.0000000  )
        10           C   tau(  10) = (  -0.3000000   0.6350853   0.0000000  )
        11           C   tau(  11) = (  -0.4000000   0.6928203   0.0000000  )
        12           C   tau(  12) = (  -0.4000000   0.8082904   0.0000000  )
        13           C   tau(  13) = (   0.2000000   0.0000000   0.0000000  )
        14           C   tau(  14) = (   0.2000000   0.1154701   0.0000000  )
        15           C   tau(  15) = (   0.1000000   0.1732051   0.0000000  )
        16           C   tau(  16) = (   0.1000000   0.2886751   0.0000000  )
        17           C   tau(  17) = (   0.0000000   0.3464102   0.0000000  )
        18           C   tau(  18) = (   0.0000000   0.4618802   0.0000000  )
        19           C   tau(  19) = (  -0.1000000   0.5196152   0.0000000  )
        20           C   tau(  20) = (  -0.1000000   0.6350853   0.0000000  )
        21           C   tau(  21) = (  -0.2000000   0.6928203   0.0000000  )
        22           C   tau(  22) = (  -0.2000000   0.8082904   0.0000000  )
        23           C   tau(  23) = (   0.4000000   0.0000000   0.0000000  )
        24           C   tau(  24) = (   0.4000000   0.1154701   0.0000000  )
        25           C   tau(  25) = (   0.3000000   0.1732051   0.0000000  )
        26           C   tau(  26) = (   0.3000000   0.2886751   0.0000000  )
        27           C   tau(  27) = (   0.2000000   0.3464102   0.0000000  )
        28           Cu  tau(  28) = (   0.2000000   0.4618802   0.0000000  )
        29           C   tau(  29) = (   0.1000000   0.5196152   0.0000000  )
        30           C   tau(  30) = (   0.1000000   0.6350853   0.0000000  )
        31           C   tau(  31) = (   0.0000000   0.6928203   0.0000000  )
        32           C   tau(  32) = (   0.0000000   0.8082904   0.0000000  )
        33           C   tau(  33) = (   0.6000000   0.0000000   0.0000000  )
        34           C   tau(  34) = (   0.6000000   0.1154701   0.0000000  )
        35           C   tau(  35) = (   0.5000000   0.1732051   0.0000000  )
        36           C   tau(  36) = (   0.5000000   0.2886751   0.0000000  )
        37           C   tau(  37) = (   0.4000000   0.3464102   0.0000000  )
        38           C   tau(  38) = (   0.4000000   0.4618802   0.0000000  )
        39           C   tau(  39) = (   0.3000000   0.5196152   0.0000000  )
        40           C   tau(  40) = (   0.3000000   0.6350853   0.0000000  )
        41           C   tau(  41) = (   0.2000000   0.6928203   0.0000000  )
        42           C   tau(  42) = (   0.2000000   0.8082904   0.0000000  )
        43           C   tau(  43) = (   0.8000000   0.0000000   0.0000000  )
        44           C   tau(  44) = (   0.8000000   0.1154701   0.0000000  )
        45           C   tau(  45) = (   0.7000000   0.1732051   0.0000000  )
        46           C   tau(  46) = (   0.7000000   0.2886751   0.0000000  )
        47           C   tau(  47) = (   0.6000000   0.3464102   0.0000000  )
        48           C   tau(  48) = (   0.6000000   0.4618802   0.0000000  )
        49           C   tau(  49) = (   0.5000000   0.5196152   0.0000000  )
        50           C   tau(  50) = (   0.5000000   0.6350853   0.0000000  )
        51           C   tau(  51) = (   0.4000000   0.6928203   0.0000000  )
        52           C   tau(  52) = (   0.4000000   0.8082904   0.0000000  )

   Crystallographic axes

     site n.     atom                  positions (cryst. coord.)
         1           H   tau(   1) = (  0.5333333  0.5333333  0.2400000  )
         2           H   tau(   2) = (  0.5333333  0.5333333  0.3152072  )
         3           C   tau(   3) = (  0.0000000  0.0000000  0.0000000  )
         4           C   tau(   4) = (  0.0666667  0.1333333  0.0000000  )
         5           C   tau(   5) = (  0.0000000  0.2000000  0.0000000  )
         6           C   tau(   6) = (  0.0666667  0.3333333  0.0000000  )
         7           C   tau(   7) = (  0.0000000  0.4000000  0.0000000  )
         8           C   tau(   8) = (  0.0666667  0.5333333  0.0000000  )
         9           C   tau(   9) = (  0.0000000  0.6000000  0.0000000  )
        10           C   tau(  10) = (  0.0666667  0.7333333  0.0000000  )
        11           C   tau(  11) = (  0.0000000  0.8000000  0.0000000  )
        12           C   tau(  12) = (  0.0666667  0.9333333  0.0000000  )
        13           C   tau(  13) = (  0.2000000  0.0000000  0.0000000  )
        14           C   tau(  14) = (  0.2666667  0.1333333  0.0000000  )
        15           C   tau(  15) = (  0.2000000  0.2000000  0.0000000  )
        16           C   tau(  16) = (  0.2666667  0.3333333  0.0000000  )
        17           C   tau(  17) = (  0.2000000  0.4000000  0.0000000  )
        18           C   tau(  18) = (  0.2666667  0.5333333  0.0000000  )
        19           C   tau(  19) = (  0.2000000  0.6000000  0.0000000  )
        20           C   tau(  20) = (  0.2666667  0.7333333  0.0000000  )
        21           C   tau(  21) = (  0.2000000  0.8000000  0.0000000  )
        22           C   tau(  22) = (  0.2666667  0.9333333  0.0000000  )
        23           C   tau(  23) = (  0.4000000  0.0000000  0.0000000  )
        24           C   tau(  24) = (  0.4666667  0.1333333  0.0000000  )
        25           C   tau(  25) = (  0.4000000  0.2000000  0.0000000  )
        26           C   tau(  26) = (  0.4666667  0.3333333  0.0000000  )
        27           C   tau(  27) = (  0.4000000  0.4000000  0.0000000  )
        28           Cu  tau(  28) = (  0.4666667  0.5333333  0.0000000  )
        29           C   tau(  29) = (  0.4000000  0.6000000  0.0000000  )
        30           C   tau(  30) = (  0.4666667  0.7333333  0.0000000  )
        31           C   tau(  31) = (  0.4000000  0.8000000  0.0000000  )
        32           C   tau(  32) = (  0.4666667  0.9333333  0.0000000  )
        33           C   tau(  33) = (  0.6000000  0.0000000  0.0000000  )
        34           C   tau(  34) = (  0.6666667  0.1333333  0.0000000  )
        35           C   tau(  35) = (  0.6000000  0.2000000  0.0000000  )
        36           C   tau(  36) = (  0.6666667  0.3333333  0.0000000  )
        37           C   tau(  37) = (  0.6000000  0.4000000  0.0000000  )
        38           C   tau(  38) = (  0.6666667  0.5333333  0.0000000  )
        39           C   tau(  39) = (  0.6000000  0.6000000  0.0000000  )
        40           C   tau(  40) = (  0.6666667  0.7333333  0.0000000  )
        41           C   tau(  41) = (  0.6000000  0.8000000  0.0000000  )
        42           C   tau(  42) = (  0.6666667  0.9333333  0.0000000  )
        43           C   tau(  43) = (  0.8000000  0.0000000  0.0000000  )
        44           C   tau(  44) = (  0.8666667  0.1333333  0.0000000  )
        45           C   tau(  45) = (  0.8000000  0.2000000  0.0000000  )
        46           C   tau(  46) = (  0.8666667  0.3333333  0.0000000  )
        47           C   tau(  47) = (  0.8000000  0.4000000  0.0000000  )
        48           C   tau(  48) = (  0.8666667  0.5333333  0.0000000  )
        49           C   tau(  49) = (  0.8000000  0.6000000  0.0000000  )
        50           C   tau(  50) = (  0.8666667  0.7333333  0.0000000  )
        51           C   tau(  51) = (  0.8000000  0.8000000  0.0000000  )
        52           C   tau(  52) = (  0.8666667  0.9333333  0.0000000  )

     number of k points=     1  Marzari-Vanderbilt smearing, width (Ry)=  0.0010
                       cart. coord. in units 2pi/alat
        k(    1) = (   0.0000000   0.0000000   0.0000000), wk =   2.0000000

                       cryst. coord.
        k(    1) = (   0.0000000   0.0000000   0.0000000), wk =   2.0000000

     Dense  grid:  1626001 G-vectors     FFT dimensions: ( 180, 180, 135)

     Smooth grid:   702581 G-vectors     FFT dimensions: ( 125, 125, 108)

     Dynamical RAM for                 wfc:      28.14 MB

     Dynamical RAM for     wfc (w. buffer):      28.14 MB

     Dynamical RAM for           str. fact:      12.41 MB

     Dynamical RAM for           local pot:       0.00 MB

     Dynamical RAM for          nlocal pot:      92.46 MB

     Dynamical RAM for                qrad:      19.73 MB

     Dynamical RAM for          rho,v,vnew:      29.46 MB

     Dynamical RAM for               rhoin:       9.82 MB

     Dynamical RAM for            rho*nmix:      66.16 MB

     Dynamical RAM for           G-vectors:      16.40 MB

     Dynamical RAM for          h,s,v(r/c):      11.63 MB

     Dynamical RAM for          <psi|beta>:       0.80 MB

     Dynamical RAM for                 psi:     112.56 MB

     Dynamical RAM for                hpsi:     112.56 MB

     Dynamical RAM for                spsi:     112.56 MB

     Dynamical RAM for      wfcinit/wfcrot:      93.45 MB

     Dynamical RAM for           addusdens:     971.75 MB

     Estimated static dynamical RAM per process >     319.55 MB

     Estimated max dynamical RAM per process >       1.26 GB

     Estimated total dynamical RAM >       7.57 GB

     Check: negative core charge=   -0.000002

     Initial potential from superposition of free atoms

     starting charge  208.80532, renormalised to  209.00000

     negative rho (up, down):  6.552E-05 0.000E+00


---------------------------------------------------------------------------------
Carrying out rVV10 run using the following parameters:
Nqs =      20    Nr_points =    1024   r_max =   100.000
b_value =  6.30000    beta =  0.00901
     q_mesh =  0.00010000  0.00030000  0.00058939  0.00100810
               0.00161396  0.00249058  0.00375900  0.00559430
               0.00824984  0.01209221  0.01765183  0.02569619
               0.03733578  0.05417739  0.07854596  0.11380545
               0.16482331  0.23864234  0.34545298  0.50000000

Gradients computed in Reciprocal space

---------------------------------------------------------------------------------


     Starting wfcs are  207 randomized atomic wfcs

     total cpu time spent up to now is       50.0 secs

     Self-consistent Calculation

     iteration #  1     ecut=    70.00 Ry     beta= 0.70
     Davidson diagonalization with overlap
     ethr =  1.00E-02,  avg # of iterations =  6.0

     negative rho (up, down):  1.568E-04 0.000E+00

     total cpu time spent up to now is      117.9 secs

     total energy              =    -732.34997493 Ry
     Harris-Foulkes estimate   =    -737.60604473 Ry
     estimated scf accuracy    <       7.85138069 Ry

     iteration #  2     ecut=    70.00 Ry     beta= 0.70
     Davidson diagonalization with overlap
     ethr =  3.76E-03,  avg # of iterations =  4.0

     negative rho (up, down):  1.909E-04 0.000E+00

     total cpu time spent up to now is      182.3 secs

     total energy              =    -731.68605504 Ry
     Harris-Foulkes estimate   =    -737.57706630 Ry
     estimated scf accuracy    <      12.07146812 Ry

     iteration #  3     ecut=    70.00 Ry     beta= 0.70
     Davidson diagonalization with overlap
     ethr =  3.76E-03,  avg # of iterations =  6.0

     negative rho (up, down):  2.463E-04 0.000E+00

     total cpu time spent up to now is      236.6 secs

     total energy              =    -731.90461007 Ry
     Harris-Foulkes estimate   =    -736.19451131 Ry
     estimated scf accuracy    <      16.63960892 Ry

     iteration #  4     ecut=    70.00 Ry     beta= 0.70
     Davidson diagonalization with overlap
     ethr =  3.76E-03,  avg # of iterations =  3.0

     negative rho (up, down):  2.720E-04 0.000E+00

     total cpu time spent up to now is      291.7 secs

     total energy              =    -734.20385035 Ry
     Harris-Foulkes estimate   =    -735.23905612 Ry
     estimated scf accuracy    <       5.89651350 Ry

     iteration #  5     ecut=    70.00 Ry     beta= 0.70
     Davidson diagonalization with overlap
     ethr =  2.82E-03,  avg # of iterations =  3.0

     negative rho (up, down):  2.933E-04 0.000E+00

     total cpu time spent up to now is      340.8 secs

     total energy              =    -734.71011149 Ry
     Harris-Foulkes estimate   =    -734.82226124 Ry
     estimated scf accuracy    <       0.38199754 Ry

     iteration #  6     ecut=    70.00 Ry     beta= 0.70
     Davidson diagonalization with overlap
     ethr =  1.83E-04,  avg # of iterations = 11.0

     negative rho (up, down):  3.149E-04 0.000E+00

     total cpu time spent up to now is      398.9 secs

     total energy              =    -734.73673846 Ry
     Harris-Foulkes estimate   =    -734.78361884 Ry
     estimated scf accuracy    <       0.16123356 Ry

     iteration #  7     ecut=    70.00 Ry     beta= 0.70
     Davidson diagonalization with overlap
     ethr =  7.71E-05,  avg # of iterations =  8.0

     negative rho (up, down):  3.532E-04 0.000E+00

     total cpu time spent up to now is      450.3 secs

     total energy              =    -734.74493135 Ry
     Harris-Foulkes estimate   =    -734.75956872 Ry
     estimated scf accuracy    <       0.06024924 Ry

     iteration #  8     ecut=    70.00 Ry     beta= 0.70
     Davidson diagonalization with overlap
     ethr =  2.88E-05,  avg # of iterations =  3.0

     negative rho (up, down):  4.065E-04 0.000E+00

     total cpu time spent up to now is      500.5 secs

     total energy              =    -734.74739182 Ry
     Harris-Foulkes estimate   =    -734.75718892 Ry
     estimated scf accuracy    <       0.04575568 Ry

     iteration #  9     ecut=    70.00 Ry     beta= 0.70
     Davidson diagonalization with overlap
     ethr =  2.19E-05,  avg # of iterations =  2.0

     negative rho (up, down):  4.602E-04 0.000E+00

     total cpu time spent up to now is      549.8 secs

     total energy              =    -734.74732782 Ry
     Harris-Foulkes estimate   =    -734.75140555 Ry
     estimated scf accuracy    <       0.02048531 Ry

     iteration # 10     ecut=    70.00 Ry     beta= 0.70
     Davidson diagonalization with overlap
     ethr =  9.80E-06,  avg # of iterations =  2.0

     negative rho (up, down):  5.777E-04 0.000E+00

     total cpu time spent up to now is      599.6 secs

     total energy              =    -734.74891794 Ry
     Harris-Foulkes estimate   =    -734.75407099 Ry
     estimated scf accuracy    <       0.03542878 Ry

     iteration # 11     ecut=    70.00 Ry     beta= 0.70
     Davidson diagonalization with overlap
     ethr =  9.80E-06,  avg # of iterations =  2.0

     negative rho (up, down):  6.488E-04 0.000E+00

     total cpu time spent up to now is      649.1 secs

     total energy              =    -734.74907946 Ry
     Harris-Foulkes estimate   =    -734.74988261 Ry
     estimated scf accuracy    <       0.01307282 Ry

     iteration # 12     ecut=    70.00 Ry     beta= 0.70
     Davidson diagonalization with overlap
     ethr =  6.25E-06,  avg # of iterations =  1.0

     negative rho (up, down):  6.111E-04 0.000E+00

     total cpu time spent up to now is      698.2 secs

     total energy              =    -734.74942926 Ry
     Harris-Foulkes estimate   =    -734.74979194 Ry
     estimated scf accuracy    <       0.00655829 Ry

     iteration # 13     ecut=    70.00 Ry     beta= 0.70
     Davidson diagonalization with overlap
     ethr =  3.14E-06,  avg # of iterations =  1.0

     negative rho (up, down):  6.351E-04 0.000E+00

     total cpu time spent up to now is      747.3 secs

     total energy              =    -734.74948111 Ry
     Harris-Foulkes estimate   =    -734.74968263 Ry
     estimated scf accuracy    <       0.00316666 Ry

     iteration # 14     ecut=    70.00 Ry     beta= 0.70
     Davidson diagonalization with overlap
     ethr =  1.52E-06,  avg # of iterations =  1.0

     negative rho (up, down):  6.361E-04 0.000E+00

     total cpu time spent up to now is      796.7 secs

     total energy              =    -734.74953696 Ry
     Harris-Foulkes estimate   =    -734.74962524 Ry
     estimated scf accuracy    <       0.00148302 Ry

     iteration # 15     ecut=    70.00 Ry     beta= 0.70
     Davidson diagonalization with overlap
     ethr =  7.10E-07,  avg # of iterations =  1.0

     negative rho (up, down):  6.380E-04 0.000E+00

     total cpu time spent up to now is      845.8 secs

     total energy              =    -734.74957349 Ry
     Harris-Foulkes estimate   =    -734.74962775 Ry
     estimated scf accuracy    <       0.00168039 Ry

     iteration # 16     ecut=    70.00 Ry     beta= 0.70
     Davidson diagonalization with overlap
     ethr =  7.10E-07,  avg # of iterations =  1.0

     negative rho (up, down):  6.405E-04 0.000E+00

     total cpu time spent up to now is      894.9 secs

     total energy              =    -734.74959504 Ry
     Harris-Foulkes estimate   =    -734.74959852 Ry
     estimated scf accuracy    <       0.00005046 Ry

     iteration # 17     ecut=    70.00 Ry     beta= 0.70
     Davidson diagonalization with overlap
     ethr =  2.41E-08,  avg # of iterations =  1.0

     negative rho (up, down):  6.413E-04 0.000E+00

     total cpu time spent up to now is      944.0 secs

     total energy              =    -734.74959617 Ry
     Harris-Foulkes estimate   =    -734.74959761 Ry
     estimated scf accuracy    <       0.00001676 Ry

     iteration # 18     ecut=    70.00 Ry     beta= 0.70
     Davidson diagonalization with overlap
     ethr =  8.02E-09,  avg # of iterations =  1.0

     negative rho (up, down):  6.419E-04 0.000E+00

     total cpu time spent up to now is      993.6 secs

     total energy              =    -734.74959661 Ry
     Harris-Foulkes estimate   =    -734.74959708 Ry
     estimated scf accuracy    <       0.00000810 Ry

     iteration # 19     ecut=    70.00 Ry     beta= 0.70
     Davidson diagonalization with overlap
     ethr =  3.88E-09,  avg # of iterations =  1.0

     negative rho (up, down):  6.419E-04 0.000E+00

     total cpu time spent up to now is     1042.7 secs

     End of self-consistent calculation

          k = 0.0000 0.0000 0.0000 ( 87777 PWs)   bands (ev):

   -19.8403 -18.9946 -18.9938 -18.9128 -18.9124 -18.8522 -18.7410 -17.1607
   -17.1595 -17.1361 -17.0911 -17.0896 -16.8054 -16.3225 -16.3212 -16.1852
   -16.1846 -16.1694 -15.7450 -14.3930 -14.3908 -14.1296 -14.0428 -14.0423
   -13.5690 -13.1663 -13.1662 -13.0860 -12.9323 -12.9312 -12.6122 -12.2731
   -12.2727 -11.7169 -11.6046 -11.6041 -11.1477 -10.8885 -10.8882  -9.5158
    -9.3671  -9.3667  -9.2516  -9.2416  -9.2414  -9.2300  -9.0601  -9.0452
    -9.0446  -9.0421  -8.9166  -8.7102  -8.7096  -7.9885  -7.8966  -7.8453
    -7.6525  -7.6521  -7.5389  -7.5381  -7.1244  -6.8648  -6.8527  -6.8504
    -6.8097  -6.7923  -6.7206  -6.7191  -6.6206  -6.6196  -6.5829  -6.5781
    -6.5779  -6.5312  -6.3916  -6.3905  -6.3198  -5.6122  -5.6114  -5.0316
    -4.9644  -4.8886  -4.8881  -4.8614  -4.7709  -4.7361  -4.7355  -4.5483
    -4.5442  -4.4523  -3.8613  -3.8609  -3.8178  -3.8178  -3.7943  -3.6433
    -3.6391  -3.3788  -1.8927  -1.8372  -1.8369  -1.7374  -1.7327  -1.2131
    -0.6571  -0.6570   0.9010   0.9368   0.9383   1.0902   1.0940   1.4887
     2.5657   2.7805   2.7838   2.8275   2.9250   2.9302   3.3893   3.6759
     3.6824   3.8037   3.8079   3.8245   3.9535   4.2944

     occupation numbers 
     1.0000   1.0000   1.0000   1.0000   1.0000   1.0000   1.0000   1.0000
     1.0000   1.0000   1.0000   1.0000   1.0000   1.0000   1.0000   1.0000
     1.0000   1.0000   1.0000   1.0000   1.0000   1.0000   1.0000   1.0000
     1.0000   1.0000   1.0000   1.0000   1.0000   1.0000   1.0000   1.0000
     1.0000   1.0000   1.0000   1.0000   1.0000   1.0000   1.0000   1.0000
     1.0000   1.0000   1.0000   1.0000   1.0000   1.0000   1.0000   1.0000
     1.0000   1.0000   1.0000   1.0000   1.0000   1.0000   1.0000   1.0000
     1.0000   1.0000   1.0000   1.0000   1.0000   1.0000   1.0000   1.0000
     1.0000   1.0000   1.0000   1.0000   1.0000   1.0000   1.0000   1.0000
     1.0000   1.0000   1.0000   1.0000   1.0000   1.0000   1.0000   1.0000
     1.0000   1.0000   1.0000   1.0000   1.0000   1.0000   1.0000   1.0000
     1.0000   1.0000   1.0000   1.0000   1.0000   1.0000   1.0000   1.0000
     1.0000   1.0000   1.0000   1.0000   1.0000   1.0000   1.0000   1.0000
     0.2521   0.2479   0.0000   0.0000   0.0000   0.0000   0.0000   0.0000
     0.0000   0.0000   0.0000   0.0000   0.0000   0.0000   0.0000   0.0000
     0.0000   0.0000   0.0000   0.0000   0.0000   0.0000

     the Fermi energy is    -0.6603 ev

!    total energy              =    -734.74959638 Ry
     Harris-Foulkes estimate   =    -734.74959684 Ry
     estimated scf accuracy    <       0.00000059 Ry

     The total energy is the sum of the following terms:

     one-electron contribution =   -2497.18302307 Ry
     hartree contribution      =    1304.23962842 Ry
     xc contribution           =    -275.93213122 Ry
     ewald contribution        =     734.12654297 Ry
     smearing contrib. (-TS)   =      -0.00061348 Ry

     convergence has been achieved in  19 iterations

     Writing output data file gr-12-baricentro.save/

     init_run     :     47.76s CPU     48.90s WALL (       1 calls)
     electrons    :    960.74s CPU    992.78s WALL (       1 calls)

     Called by init_run:
     wfcinit      :     20.92s CPU     21.05s WALL (       1 calls)
     wfcinit:atom :      0.03s CPU      0.05s WALL (       1 calls)
     wfcinit:wfcr :     20.72s CPU     20.80s WALL (       1 calls)
     potinit      :     12.13s CPU     12.52s WALL (       1 calls)
     hinit0       :     10.05s CPU     10.08s WALL (       1 calls)

     Called by electrons:
     c_bands      :    565.96s CPU    569.44s WALL (      19 calls)
     sum_band     :    193.75s CPU    204.72s WALL (      19 calls)
     v_of_rho     :    123.87s CPU    131.35s WALL (      20 calls)
     v_h          :      1.38s CPU      1.43s WALL (      20 calls)
     v_xc         :    122.49s CPU    129.93s WALL (      20 calls)
     newd         :     81.53s CPU     92.38s WALL (      20 calls)
     mix_rho      :      3.72s CPU      3.79s WALL (      19 calls)

     Called by c_bands:
     init_us_2    :      1.67s CPU      1.71s WALL (      39 calls)
     cegterg      :    561.87s CPU    565.31s WALL (      19 calls)

     Called by sum_band:
     sum_band:bec :      0.02s CPU      0.02s WALL (      19 calls)
     addusdens    :    119.89s CPU    130.35s WALL (      19 calls)

     Called by *egterg:
     h_psi        :    307.21s CPU    309.55s WALL (      78 calls)
     s_psi        :    102.97s CPU    103.08s WALL (      78 calls)
     g_psi        :      0.32s CPU      0.32s WALL (      58 calls)
     cdiaghg      :      5.17s CPU      5.17s WALL (      77 calls)
     cegterg:over :     65.10s CPU     65.17s WALL (      58 calls)
     cegterg:upda :     37.86s CPU     38.18s WALL (      58 calls)
     cegterg:last :     29.56s CPU     29.59s WALL (      19 calls)

     Called by h_psi:
     h_psi:pot    :    306.83s CPU    308.81s WALL (      78 calls)
     h_psi:calbec :    102.41s CPU    102.52s WALL (      78 calls)
     vloc_psi     :    101.58s CPU    103.33s WALL (      78 calls)
     add_vuspsi   :    102.84s CPU    102.95s WALL (      78 calls)

     General routines
     calbec       :    147.32s CPU    147.47s WALL (      97 calls)
     fft          :     68.29s CPU     70.97s WALL (    1258 calls)
     ffts         :      0.70s CPU      0.72s WALL (      39 calls)
     fftw         :    108.90s CPU    110.85s WALL (   13270 calls)
     interpolate  :      1.68s CPU      1.72s WALL (      20 calls)

     Parallel routines
     fft_scatt_xy :     31.11s CPU     31.53s WALL (   14567 calls)
     fft_scatt_yz :     60.48s CPU     63.77s WALL (   14567 calls)

     PWSCF        :  16m49.73s CPU  17m23.13s WALL


   This run was terminated on:  13:44: 1  19Jul2022            

=------------------------------------------------------------------------------=
   JOB DONE.
=------------------------------------------------------------------------------=
