
     Program PWSCF v.6.4.1 starts on 19Jul2022 at 14: 2:21 

     This program is part of the open-source Quantum ESPRESSO suite
     for quantum simulation of materials; please cite
         "P. Giannozzi et al., J. Phys.:Condens. Matter 21 395502 (2009);
         "P. Giannozzi et al., J. Phys.:Condens. Matter 29 465901 (2017);
          URL http://www.quantum-espresso.org", 
     in publications or presentations arising from this work. More details at
     http://www.quantum-espresso.org/quote

     Parallel version (MPI), running on     6 processors

     MPI processes distributed on     1 nodes
     R & G space division:  proc/nbgrp/npool/nimage =       6
     Reading input from distance-2.0.in

     Current dimensions of program PWSCF are:
     Max number of different atomic species (ntypx) = 10
     Max number of k-points (npk) =  40000
     Max angular momentum in pseudopotentials (lmaxx) =  3

     IMPORTANT: XC functional enforced from input :
     Exchange-correlation      = RVV10 ( 1  4 13  4 3 0)
     Any further DFT definition will be discarded
     Please, verify this is what you really want

               file H.pbe-rrkjus.UPF: wavefunction(s)  1S renormalized
               file Cu.pbe-dn-rrkjus_psl.1.0.0.UPF: wavefunction(s)  3D renormalized

     Subspace diagonalization in iterative solution of the eigenvalue problem:
     a serial algorithm will be used


     Parallelization info
     --------------------
     sticks:   dense  smooth     PW     G-vecs:    dense   smooth      PW
     Min        3051    1746    432               270999   117096   14629
     Max        3053    1747    437               271001   117099   14630
     Sum       18313   10477   2611              1626001   702581   87777



     bravais-lattice index     =            4
     lattice parameter (alat)  =      23.2937  a.u.
     unit-cell volume          =    8879.8548 (a.u.)^3
     number of atoms/cell      =           52
     number of atomic types    =            3
     number of electrons       =       209.00
     number of Kohn-Sham states=          126
     kinetic-energy cutoff     =      70.0000  Ry
     charge density cutoff     =     490.0000  Ry
     convergence threshold     =      1.0E-06
     mixing beta               =       0.7000
     number of iterations used =            8  plain     mixing
     Exchange-correlation      = RVV10 ( 1  4 13  4 3 0)

     celldm(1)=  23.293684  celldm(2)=   0.000000  celldm(3)=   0.811261
     celldm(4)=   0.000000  celldm(5)=   0.000000  celldm(6)=   0.000000

     crystal axes: (cart. coord. in units of alat)
               a(1) = (   1.000000   0.000000   0.000000 )  
               a(2) = (  -0.500000   0.866025   0.000000 )  
               a(3) = (   0.000000   0.000000   0.811261 )  

     reciprocal axes: (cart. coord. in units 2 pi/alat)
               b(1) = (  1.000000  0.577350 -0.000000 )  
               b(2) = (  0.000000  1.154701  0.000000 )  
               b(3) = (  0.000000 -0.000000  1.232649 )  


     PseudoPot. # 1 for H  read from file:
     /home/cristian/Escritorio/Proyecto_Grafeno/pseudopotenciales/H.pbe-rrkjus.UPF
     MD5 check sum: 7cc9d459525c9a0585f487a71c3c9563
     Pseudo is Ultrasoft, Zval =  1.0
     Generated by new atomic code, or converted to UPF format
     Using radial grid of 1061 points,  2 beta functions with: 
                l(1) =   0
                l(2) =   0
     Q(r) pseudized with 0 coefficients 


     PseudoPot. # 2 for C  read from file:
     /home/cristian/Escritorio/Proyecto_Grafeno/pseudopotenciales/C.pbe-n-rrkjus_psl.1.0.0.UPF
     MD5 check sum: 1fdd950c42eb37d8afe3dd2f8d12311e
     Pseudo is Ultrasoft + core correction, Zval =  4.0
     Generated using "atomic" code by A. Dal Corso v.6.3MaX
     Using radial grid of 1073 points,  4 beta functions with: 
                l(1) =   0
                l(2) =   0
                l(3) =   1
                l(4) =   1
     Q(r) pseudized with 0 coefficients 


     PseudoPot. # 3 for Cu read from file:
     /home/cristian/Escritorio/Proyecto_Grafeno/pseudopotenciales/Cu.pbe-dn-rrkjus_psl.1.0.0.UPF
     MD5 check sum: ba3d6c84e19846e79d48cdc68ff7152b
     Pseudo is Ultrasoft + core correction, Zval = 11.0
     Generated using "atomic" code by A. Dal Corso v.6.3
     Using radial grid of 1199 points,  6 beta functions with: 
                l(1) =   0
                l(2) =   0
                l(3) =   1
                l(4) =   1
                l(5) =   2
                l(6) =   2
     Q(r) pseudized with 0 coefficients 


     vdW kernel table read from file rVV10_kernel_table
     MD5 check sum: b8e2538accc0c0b3206b45ba4daaba6c

     atomic species   valence    mass     pseudopotential
        H              1.00     1.00794     H ( 1.00)
        C              4.00    12.01070     C ( 1.00)
        Cu            11.00    63.54600     Cu( 1.00)

     No symmetry found


                                    s                        frac. trans.

      isym =  1     identity                                     

 cryst.   s( 1) = (     1          0          0      )
                  (     0          1          0      )
                  (     0          0          1      )

 cart.    s( 1) = (  1.0000000  0.0000000  0.0000000 )
                  (  0.0000000  1.0000000  0.0000000 )
                  (  0.0000000  0.0000000  1.0000000 )


     point group C_1 (1)    
     there are  1 classes
     the character table:

       E    
A      1.00

     the symmetry operations in each class and the name of the first element:

     E        1
          identity                                               

   Cartesian axes

     site n.     atom                  positions (alat units)
         1           H   tau(   1) = (   0.2666667   0.4618802   0.1622522  )
         2           H   tau(   2) = (   0.2666667   0.4618802   0.2232649  )
         3           C   tau(   3) = (   0.0000000   0.0000000   0.0000000  )
         4           C   tau(   4) = (   0.0000000   0.1154701   0.0000000  )
         5           C   tau(   5) = (  -0.1000000   0.1732051   0.0000000  )
         6           C   tau(   6) = (  -0.1000000   0.2886751   0.0000000  )
         7           C   tau(   7) = (  -0.2000000   0.3464102   0.0000000  )
         8           C   tau(   8) = (  -0.2000000   0.4618802   0.0000000  )
         9           C   tau(   9) = (  -0.3000000   0.5196152   0.0000000  )
        10           C   tau(  10) = (  -0.3000000   0.6350853   0.0000000  )
        11           C   tau(  11) = (  -0.4000000   0.6928203   0.0000000  )
        12           C   tau(  12) = (  -0.4000000   0.8082904   0.0000000  )
        13           C   tau(  13) = (   0.2000000   0.0000000   0.0000000  )
        14           C   tau(  14) = (   0.2000000   0.1154701   0.0000000  )
        15           C   tau(  15) = (   0.1000000   0.1732051   0.0000000  )
        16           C   tau(  16) = (   0.1000000   0.2886751   0.0000000  )
        17           C   tau(  17) = (   0.0000000   0.3464102   0.0000000  )
        18           C   tau(  18) = (   0.0000000   0.4618802   0.0000000  )
        19           C   tau(  19) = (  -0.1000000   0.5196152   0.0000000  )
        20           C   tau(  20) = (  -0.1000000   0.6350853   0.0000000  )
        21           C   tau(  21) = (  -0.2000000   0.6928203   0.0000000  )
        22           C   tau(  22) = (  -0.2000000   0.8082904   0.0000000  )
        23           C   tau(  23) = (   0.4000000   0.0000000   0.0000000  )
        24           C   tau(  24) = (   0.4000000   0.1154701   0.0000000  )
        25           C   tau(  25) = (   0.3000000   0.1732051   0.0000000  )
        26           C   tau(  26) = (   0.3000000   0.2886751   0.0000000  )
        27           C   tau(  27) = (   0.2000000   0.3464102   0.0000000  )
        28           Cu  tau(  28) = (   0.2000000   0.4618802   0.0000000  )
        29           C   tau(  29) = (   0.1000000   0.5196152   0.0000000  )
        30           C   tau(  30) = (   0.1000000   0.6350853   0.0000000  )
        31           C   tau(  31) = (   0.0000000   0.6928203   0.0000000  )
        32           C   tau(  32) = (   0.0000000   0.8082904   0.0000000  )
        33           C   tau(  33) = (   0.6000000   0.0000000   0.0000000  )
        34           C   tau(  34) = (   0.6000000   0.1154701   0.0000000  )
        35           C   tau(  35) = (   0.5000000   0.1732051   0.0000000  )
        36           C   tau(  36) = (   0.5000000   0.2886751   0.0000000  )
        37           C   tau(  37) = (   0.4000000   0.3464102   0.0000000  )
        38           C   tau(  38) = (   0.4000000   0.4618802   0.0000000  )
        39           C   tau(  39) = (   0.3000000   0.5196152   0.0000000  )
        40           C   tau(  40) = (   0.3000000   0.6350853   0.0000000  )
        41           C   tau(  41) = (   0.2000000   0.6928203   0.0000000  )
        42           C   tau(  42) = (   0.2000000   0.8082904   0.0000000  )
        43           C   tau(  43) = (   0.8000000   0.0000000   0.0000000  )
        44           C   tau(  44) = (   0.8000000   0.1154701   0.0000000  )
        45           C   tau(  45) = (   0.7000000   0.1732051   0.0000000  )
        46           C   tau(  46) = (   0.7000000   0.2886751   0.0000000  )
        47           C   tau(  47) = (   0.6000000   0.3464102   0.0000000  )
        48           C   tau(  48) = (   0.6000000   0.4618802   0.0000000  )
        49           C   tau(  49) = (   0.5000000   0.5196152   0.0000000  )
        50           C   tau(  50) = (   0.5000000   0.6350853   0.0000000  )
        51           C   tau(  51) = (   0.4000000   0.6928203   0.0000000  )
        52           C   tau(  52) = (   0.4000000   0.8082904   0.0000000  )

   Crystallographic axes

     site n.     atom                  positions (cryst. coord.)
         1           H   tau(   1) = (  0.5333333  0.5333333  0.2000000  )
         2           H   tau(   2) = (  0.5333333  0.5333333  0.2752072  )
         3           C   tau(   3) = (  0.0000000  0.0000000  0.0000000  )
         4           C   tau(   4) = (  0.0666667  0.1333333  0.0000000  )
         5           C   tau(   5) = (  0.0000000  0.2000000  0.0000000  )
         6           C   tau(   6) = (  0.0666667  0.3333333  0.0000000  )
         7           C   tau(   7) = (  0.0000000  0.4000000  0.0000000  )
         8           C   tau(   8) = (  0.0666667  0.5333333  0.0000000  )
         9           C   tau(   9) = (  0.0000000  0.6000000  0.0000000  )
        10           C   tau(  10) = (  0.0666667  0.7333333  0.0000000  )
        11           C   tau(  11) = (  0.0000000  0.8000000  0.0000000  )
        12           C   tau(  12) = (  0.0666667  0.9333333  0.0000000  )
        13           C   tau(  13) = (  0.2000000  0.0000000  0.0000000  )
        14           C   tau(  14) = (  0.2666667  0.1333333  0.0000000  )
        15           C   tau(  15) = (  0.2000000  0.2000000  0.0000000  )
        16           C   tau(  16) = (  0.2666667  0.3333333  0.0000000  )
        17           C   tau(  17) = (  0.2000000  0.4000000  0.0000000  )
        18           C   tau(  18) = (  0.2666667  0.5333333  0.0000000  )
        19           C   tau(  19) = (  0.2000000  0.6000000  0.0000000  )
        20           C   tau(  20) = (  0.2666667  0.7333333  0.0000000  )
        21           C   tau(  21) = (  0.2000000  0.8000000  0.0000000  )
        22           C   tau(  22) = (  0.2666667  0.9333333  0.0000000  )
        23           C   tau(  23) = (  0.4000000  0.0000000  0.0000000  )
        24           C   tau(  24) = (  0.4666667  0.1333333  0.0000000  )
        25           C   tau(  25) = (  0.4000000  0.2000000  0.0000000  )
        26           C   tau(  26) = (  0.4666667  0.3333333  0.0000000  )
        27           C   tau(  27) = (  0.4000000  0.4000000  0.0000000  )
        28           Cu  tau(  28) = (  0.4666667  0.5333333  0.0000000  )
        29           C   tau(  29) = (  0.4000000  0.6000000  0.0000000  )
        30           C   tau(  30) = (  0.4666667  0.7333333  0.0000000  )
        31           C   tau(  31) = (  0.4000000  0.8000000  0.0000000  )
        32           C   tau(  32) = (  0.4666667  0.9333333  0.0000000  )
        33           C   tau(  33) = (  0.6000000  0.0000000  0.0000000  )
        34           C   tau(  34) = (  0.6666667  0.1333333  0.0000000  )
        35           C   tau(  35) = (  0.6000000  0.2000000  0.0000000  )
        36           C   tau(  36) = (  0.6666667  0.3333333  0.0000000  )
        37           C   tau(  37) = (  0.6000000  0.4000000  0.0000000  )
        38           C   tau(  38) = (  0.6666667  0.5333333  0.0000000  )
        39           C   tau(  39) = (  0.6000000  0.6000000  0.0000000  )
        40           C   tau(  40) = (  0.6666667  0.7333333  0.0000000  )
        41           C   tau(  41) = (  0.6000000  0.8000000  0.0000000  )
        42           C   tau(  42) = (  0.6666667  0.9333333  0.0000000  )
        43           C   tau(  43) = (  0.8000000  0.0000000  0.0000000  )
        44           C   tau(  44) = (  0.8666667  0.1333333  0.0000000  )
        45           C   tau(  45) = (  0.8000000  0.2000000  0.0000000  )
        46           C   tau(  46) = (  0.8666667  0.3333333  0.0000000  )
        47           C   tau(  47) = (  0.8000000  0.4000000  0.0000000  )
        48           C   tau(  48) = (  0.8666667  0.5333333  0.0000000  )
        49           C   tau(  49) = (  0.8000000  0.6000000  0.0000000  )
        50           C   tau(  50) = (  0.8666667  0.7333333  0.0000000  )
        51           C   tau(  51) = (  0.8000000  0.8000000  0.0000000  )
        52           C   tau(  52) = (  0.8666667  0.9333333  0.0000000  )

     number of k points=     1  Marzari-Vanderbilt smearing, width (Ry)=  0.0010
                       cart. coord. in units 2pi/alat
        k(    1) = (   0.0000000   0.0000000   0.0000000), wk =   2.0000000

                       cryst. coord.
        k(    1) = (   0.0000000   0.0000000   0.0000000), wk =   2.0000000

     Dense  grid:  1626001 G-vectors     FFT dimensions: ( 180, 180, 135)

     Smooth grid:   702581 G-vectors     FFT dimensions: ( 125, 125, 108)

     Dynamical RAM for                 wfc:      28.14 MB

     Dynamical RAM for     wfc (w. buffer):      28.14 MB

     Dynamical RAM for           str. fact:      12.41 MB

     Dynamical RAM for           local pot:       0.00 MB

     Dynamical RAM for          nlocal pot:      92.46 MB

     Dynamical RAM for                qrad:      19.73 MB

     Dynamical RAM for          rho,v,vnew:      29.46 MB

     Dynamical RAM for               rhoin:       9.82 MB

     Dynamical RAM for            rho*nmix:      66.16 MB

     Dynamical RAM for           G-vectors:      16.40 MB

     Dynamical RAM for          h,s,v(r/c):      11.63 MB

     Dynamical RAM for          <psi|beta>:       0.80 MB

     Dynamical RAM for                 psi:     112.56 MB

     Dynamical RAM for                hpsi:     112.56 MB

     Dynamical RAM for                spsi:     112.56 MB

     Dynamical RAM for      wfcinit/wfcrot:      93.45 MB

     Dynamical RAM for           addusdens:     971.75 MB

     Estimated static dynamical RAM per process >     319.55 MB

     Estimated max dynamical RAM per process >       1.26 GB

     Estimated total dynamical RAM >       7.57 GB

     Check: negative core charge=   -0.000002

     Initial potential from superposition of free atoms

     starting charge  208.80532, renormalised to  209.00000

     negative rho (up, down):  6.999E-05 0.000E+00


---------------------------------------------------------------------------------
Carrying out rVV10 run using the following parameters:
Nqs =      20    Nr_points =    1024   r_max =   100.000
b_value =  6.30000    beta =  0.00901
     q_mesh =  0.00010000  0.00030000  0.00058939  0.00100810
               0.00161396  0.00249058  0.00375900  0.00559430
               0.00824984  0.01209221  0.01765183  0.02569619
               0.03733578  0.05417739  0.07854596  0.11380545
               0.16482331  0.23864234  0.34545298  0.50000000

Gradients computed in Reciprocal space

---------------------------------------------------------------------------------


     Starting wfcs are  207 randomized atomic wfcs

     total cpu time spent up to now is       47.4 secs

     Self-consistent Calculation

     iteration #  1     ecut=    70.00 Ry     beta= 0.70
     Davidson diagonalization with overlap
     ethr =  1.00E-02,  avg # of iterations =  8.0

     negative rho (up, down):  1.704E-04 0.000E+00

     total cpu time spent up to now is      116.1 secs

     total energy              =    -732.43619800 Ry
     Harris-Foulkes estimate   =    -737.60945707 Ry
     estimated scf accuracy    <       7.76820718 Ry

     iteration #  2     ecut=    70.00 Ry     beta= 0.70
     Davidson diagonalization with overlap
     ethr =  3.72E-03,  avg # of iterations =  4.0

     negative rho (up, down):  2.117E-04 0.000E+00

     total cpu time spent up to now is      181.0 secs

     total energy              =    -731.89675462 Ry
     Harris-Foulkes estimate   =    -737.12036848 Ry
     estimated scf accuracy    <      10.24696995 Ry

     iteration #  3     ecut=    70.00 Ry     beta= 0.70
     Davidson diagonalization with overlap
     ethr =  3.72E-03,  avg # of iterations =  6.0

     negative rho (up, down):  2.734E-04 0.000E+00

     total cpu time spent up to now is      234.7 secs

     total energy              =    -730.67291206 Ry
     Harris-Foulkes estimate   =    -736.28814766 Ry
     estimated scf accuracy    <      25.22836293 Ry

     iteration #  4     ecut=    70.00 Ry     beta= 0.70
     Davidson diagonalization with overlap
     ethr =  3.72E-03,  avg # of iterations =  3.0

     negative rho (up, down):  2.978E-04 0.000E+00

     total cpu time spent up to now is      292.6 secs

     total energy              =    -734.28604031 Ry
     Harris-Foulkes estimate   =    -735.42923679 Ry
     estimated scf accuracy    <       6.94055948 Ry

     iteration #  5     ecut=    70.00 Ry     beta= 0.70
     Davidson diagonalization with overlap
     ethr =  3.32E-03,  avg # of iterations =  2.0

     negative rho (up, down):  3.174E-04 0.000E+00

     total cpu time spent up to now is      341.8 secs

     total energy              =    -734.71575836 Ry
     Harris-Foulkes estimate   =    -734.87158407 Ry
     estimated scf accuracy    <       0.67176232 Ry

     iteration #  6     ecut=    70.00 Ry     beta= 0.70
     Davidson diagonalization with overlap
     ethr =  3.21E-04,  avg # of iterations =  6.0

     negative rho (up, down):  3.340E-04 0.000E+00

     total cpu time spent up to now is      395.0 secs

     total energy              =    -734.73524086 Ry
     Harris-Foulkes estimate   =    -734.78412452 Ry
     estimated scf accuracy    <       0.24048995 Ry

     iteration #  7     ecut=    70.00 Ry     beta= 0.70
     Davidson diagonalization with overlap
     ethr =  1.15E-04,  avg # of iterations =  2.0

     negative rho (up, down):  3.756E-04 0.000E+00

     total cpu time spent up to now is      444.9 secs

     total energy              =    -734.73059826 Ry
     Harris-Foulkes estimate   =    -734.75840942 Ry
     estimated scf accuracy    <       0.13982132 Ry

     iteration #  8     ecut=    70.00 Ry     beta= 0.70
     Davidson diagonalization with overlap
     ethr =  6.69E-05,  avg # of iterations =  2.0

     negative rho (up, down):  4.180E-04 0.000E+00

     total cpu time spent up to now is      494.3 secs

     total energy              =    -734.73131734 Ry
     Harris-Foulkes estimate   =    -734.74436099 Ry
     estimated scf accuracy    <       0.06730323 Ry

     iteration #  9     ecut=    70.00 Ry     beta= 0.70
     Davidson diagonalization with overlap
     ethr =  3.22E-05,  avg # of iterations =  2.0

     negative rho (up, down):  4.693E-04 0.000E+00

     total cpu time spent up to now is      543.5 secs

     total energy              =    -734.72968816 Ry
     Harris-Foulkes estimate   =    -734.73859472 Ry
     estimated scf accuracy    <       0.04818996 Ry

     iteration # 10     ecut=    70.00 Ry     beta= 0.70
     Davidson diagonalization with overlap
     ethr =  2.31E-05,  avg # of iterations =  2.0

     negative rho (up, down):  6.031E-04 0.000E+00

     total cpu time spent up to now is      592.7 secs

     total energy              =    -734.72982946 Ry
     Harris-Foulkes estimate   =    -734.73651880 Ry
     estimated scf accuracy    <       0.03710410 Ry

     iteration # 11     ecut=    70.00 Ry     beta= 0.70
     Davidson diagonalization with overlap
     ethr =  1.78E-05,  avg # of iterations =  3.0

     negative rho (up, down):  6.565E-04 0.000E+00

     total cpu time spent up to now is      642.5 secs

     total energy              =    -734.73095926 Ry
     Harris-Foulkes estimate   =    -734.73211530 Ry
     estimated scf accuracy    <       0.01288208 Ry

     iteration # 12     ecut=    70.00 Ry     beta= 0.70
     Davidson diagonalization with overlap
     ethr =  6.16E-06,  avg # of iterations = 13.0

     negative rho (up, down):  6.388E-04 0.000E+00

     total cpu time spent up to now is      697.7 secs

     total energy              =    -734.73165053 Ry
     Harris-Foulkes estimate   =    -734.73236316 Ry
     estimated scf accuracy    <       0.01658454 Ry

     iteration # 13     ecut=    70.00 Ry     beta= 0.70
     Davidson diagonalization with overlap
     ethr =  6.16E-06,  avg # of iterations =  1.0

     negative rho (up, down):  6.643E-04 0.000E+00

     total cpu time spent up to now is      746.7 secs

     total energy              =    -734.73130490 Ry
     Harris-Foulkes estimate   =    -734.73185915 Ry
     estimated scf accuracy    <       0.00492715 Ry

     iteration # 14     ecut=    70.00 Ry     beta= 0.70
     Davidson diagonalization with overlap
     ethr =  2.36E-06,  avg # of iterations =  3.0

     negative rho (up, down):  6.487E-04 0.000E+00

     total cpu time spent up to now is      797.0 secs

     total energy              =    -734.73137508 Ry
     Harris-Foulkes estimate   =    -734.73211972 Ry
     estimated scf accuracy    <       0.01064977 Ry

     iteration # 15     ecut=    70.00 Ry     beta= 0.70
     Davidson diagonalization with overlap
     ethr =  2.36E-06,  avg # of iterations =  1.0

     negative rho (up, down):  6.493E-04 0.000E+00

     total cpu time spent up to now is      846.1 secs

     total energy              =    -734.73171467 Ry
     Harris-Foulkes estimate   =    -734.73173232 Ry
     estimated scf accuracy    <       0.00029675 Ry

     iteration # 16     ecut=    70.00 Ry     beta= 0.70
     Davidson diagonalization with overlap
     ethr =  1.42E-07,  avg # of iterations =  3.0

     negative rho (up, down):  6.510E-04 0.000E+00

     total cpu time spent up to now is      896.5 secs

     total energy              =    -734.73173240 Ry
     Harris-Foulkes estimate   =    -734.73173498 Ry
     estimated scf accuracy    <       0.00003777 Ry

     iteration # 17     ecut=    70.00 Ry     beta= 0.70
     Davidson diagonalization with overlap
     ethr =  1.81E-08,  avg # of iterations =  3.0

     negative rho (up, down):  6.520E-04 0.000E+00

     total cpu time spent up to now is      947.2 secs

     total energy              =    -734.73173441 Ry
     Harris-Foulkes estimate   =    -734.73173553 Ry
     estimated scf accuracy    <       0.00000504 Ry

     iteration # 18     ecut=    70.00 Ry     beta= 0.70
     Davidson diagonalization with overlap
     ethr =  2.41E-09,  avg # of iterations =  2.0

     negative rho (up, down):  6.522E-04 0.000E+00

     total cpu time spent up to now is      998.1 secs

     total energy              =    -734.73173471 Ry
     Harris-Foulkes estimate   =    -734.73173495 Ry
     estimated scf accuracy    <       0.00000123 Ry

     iteration # 19     ecut=    70.00 Ry     beta= 0.70
     Davidson diagonalization with overlap
     ethr =  5.87E-10,  avg # of iterations =  2.0

     negative rho (up, down):  6.525E-04 0.000E+00

     total cpu time spent up to now is     1047.5 secs

     End of self-consistent calculation

          k = 0.0000 0.0000 0.0000 ( 87777 PWs)   bands (ev):

   -19.8471 -19.0021 -19.0000 -18.9187 -18.9175 -18.8576 -18.7513 -17.1684
   -17.1649 -17.1418 -17.0995 -17.0954 -16.8129 -16.3303 -16.3264 -16.1926
   -16.1907 -16.1749 -15.7559 -14.4051 -14.3973 -14.1355 -14.0485 -14.0473
   -13.5767 -13.1729 -13.1726 -13.0918 -12.9414 -12.9376 -12.6209 -12.2821
   -12.2809 -11.7227 -11.6132 -11.6107 -11.1569 -10.8978 -10.8968  -9.5228
    -9.3735  -9.3724  -9.2570  -9.2472  -9.2467  -9.2358  -9.1562  -9.0683
    -9.0511  -9.0508  -8.9318  -8.7181  -8.7160  -8.0583  -7.9025  -7.8610
    -7.6613  -7.6587  -7.5520  -7.5441  -7.3897  -6.8761  -6.8581  -6.8556
    -6.8159  -6.7975  -6.7286  -6.7253  -6.6276  -6.6250  -6.5883  -6.5837
    -6.5829  -6.5367  -6.3980  -6.3964  -6.1866  -5.6185  -5.6150  -5.0377
    -4.9699  -4.8949  -4.8936  -4.7807  -4.7723  -4.7416  -4.7303  -4.5547
    -4.5442  -4.3923  -3.8680  -3.8656  -3.8237  -3.8232  -3.7991  -3.6506
    -3.6393  -3.3274  -1.8986  -1.8425  -1.8416  -1.7474  -1.7387  -1.2034
    -0.6754  -0.6750   0.8946   0.9300   0.9326   1.0784   1.0873   1.4837
     2.5615   2.7724   2.7783   2.8227   2.9094   2.9214   3.3813   3.6912
     3.6990   3.8031   3.8069   3.8230   3.9696   4.2469

     occupation numbers 
     1.0000   1.0000   1.0000   1.0000   1.0000   1.0000   1.0000   1.0000
     1.0000   1.0000   1.0000   1.0000   1.0000   1.0000   1.0000   1.0000
     1.0000   1.0000   1.0000   1.0000   1.0000   1.0000   1.0000   1.0000
     1.0000   1.0000   1.0000   1.0000   1.0000   1.0000   1.0000   1.0000
     1.0000   1.0000   1.0000   1.0000   1.0000   1.0000   1.0000   1.0000
     1.0000   1.0000   1.0000   1.0000   1.0000   1.0000   1.0000   1.0000
     1.0000   1.0000   1.0000   1.0000   1.0000   1.0000   1.0000   1.0000
     1.0000   1.0000   1.0000   1.0000   1.0000   1.0000   1.0000   1.0000
     1.0000   1.0000   1.0000   1.0000   1.0000   1.0000   1.0000   1.0000
     1.0000   1.0000   1.0000   1.0000   1.0000   1.0000   1.0000   1.0000
     1.0000   1.0000   1.0000   1.0000   1.0000   1.0000   1.0000   1.0000
     1.0000   1.0000   1.0000   1.0000   1.0000   1.0000   1.0000   1.0000
     1.0000   1.0000   1.0000   1.0000   1.0000   1.0000   1.0000   1.0000
     0.2582   0.2418   0.0000   0.0000   0.0000   0.0000   0.0000   0.0000
     0.0000   0.0000   0.0000   0.0000   0.0000   0.0000   0.0000   0.0000
     0.0000   0.0000   0.0000   0.0000   0.0000   0.0000

     the Fermi energy is    -0.6785 ev

!    total energy              =    -734.73173446 Ry
     Harris-Foulkes estimate   =    -734.73173479 Ry
     estimated scf accuracy    <       0.00000033 Ry

     The total energy is the sum of the following terms:

     one-electron contribution =   -2506.31837338 Ry
     hartree contribution      =    1308.77804998 Ry
     xc contribution           =    -275.96809981 Ry
     ewald contribution        =     738.77730200 Ry
     smearing contrib. (-TS)   =      -0.00061325 Ry

     convergence has been achieved in  19 iterations

     Writing output data file gr-12-baricentro.save/

     init_run     :     44.99s CPU     46.23s WALL (       1 calls)
     electrons    :    967.86s CPU   1000.22s WALL (       1 calls)

     Called by init_run:
     wfcinit      :     20.96s CPU     21.13s WALL (       1 calls)
     wfcinit:atom :      0.04s CPU      0.06s WALL (       1 calls)
     wfcinit:wfcr :     20.71s CPU     20.84s WALL (       1 calls)
     potinit      :     10.98s CPU     11.42s WALL (       1 calls)
     hinit0       :      8.41s CPU      8.42s WALL (       1 calls)

     Called by electrons:
     c_bands      :    573.47s CPU    576.83s WALL (      19 calls)
     sum_band     :    193.67s CPU    204.87s WALL (      19 calls)
     v_of_rho     :    123.69s CPU    131.36s WALL (      20 calls)
     v_h          :      1.36s CPU      1.40s WALL (      20 calls)
     v_xc         :    122.33s CPU    129.95s WALL (      20 calls)
     newd         :     81.22s CPU     92.21s WALL (      20 calls)
     mix_rho      :      3.71s CPU      3.77s WALL (      19 calls)

     Called by c_bands:
     init_us_2    :      1.73s CPU      1.75s WALL (      39 calls)
     cegterg      :    569.02s CPU    572.36s WALL (      19 calls)

     Called by sum_band:
     sum_band:bec :      0.02s CPU      0.02s WALL (      19 calls)
     addusdens    :    118.48s CPU    129.20s WALL (      19 calls)

     Called by *egterg:
     h_psi        :    309.47s CPU    311.88s WALL (      88 calls)
     s_psi        :    102.44s CPU    102.49s WALL (      88 calls)
     g_psi        :      0.32s CPU      0.32s WALL (      68 calls)
     cdiaghg      :      5.84s CPU      5.84s WALL (      87 calls)
     cegterg:over :     67.51s CPU     67.55s WALL (      68 calls)
     cegterg:upda :     38.93s CPU     39.17s WALL (      68 calls)
     cegterg:last :     29.59s CPU     29.60s WALL (      19 calls)

     Called by h_psi:
     h_psi:pot    :    309.12s CPU    311.16s WALL (      88 calls)
     h_psi:calbec :    103.45s CPU    103.50s WALL (      88 calls)
     vloc_psi     :    102.93s CPU    104.87s WALL (      88 calls)
     add_vuspsi   :    102.73s CPU    102.78s WALL (      88 calls)

     General routines
     calbec       :    148.50s CPU    148.57s WALL (     107 calls)
     fft          :     70.44s CPU     73.21s WALL (    1258 calls)
     ffts         :      0.73s CPU      0.75s WALL (      39 calls)
     fftw         :    110.68s CPU    112.79s WALL (   13374 calls)
     interpolate  :      1.72s CPU      1.75s WALL (      20 calls)

     Parallel routines
     fft_scatt_xy :     30.45s CPU     30.84s WALL (   14671 calls)
     fft_scatt_yz :     66.19s CPU     69.68s WALL (   14671 calls)

     PWSCF        :  16m54.12s CPU  17m27.98s WALL


   This run was terminated on:  14:19:49  19Jul2022            

=------------------------------------------------------------------------------=
   JOB DONE.
=------------------------------------------------------------------------------=
