
     Program PWSCF v.6.4.1 starts on 12Jan2023 at 20: 9:47 

     This program is part of the open-source Quantum ESPRESSO suite
     for quantum simulation of materials; please cite
         "P. Giannozzi et al., J. Phys.:Condens. Matter 21 395502 (2009);
         "P. Giannozzi et al., J. Phys.:Condens. Matter 29 465901 (2017);
          URL http://www.quantum-espresso.org", 
     in publications or presentations arising from this work. More details at
     http://www.quantum-espresso.org/quote

     Parallel version (MPI), running on     6 processors

     MPI processes distributed on     1 nodes
     R & G space division:  proc/nbgrp/npool/nimage =       6
     Reading input from distance-2.4.in

     Current dimensions of program PWSCF are:
     Max number of different atomic species (ntypx) = 10
     Max number of k-points (npk) =  40000
     Max angular momentum in pseudopotentials (lmaxx) =  3

     IMPORTANT: XC functional enforced from input :
     Exchange-correlation      = RVV10 ( 1  4 13  4 3 0)
     Any further DFT definition will be discarded
     Please, verify this is what you really want

               file H.pbe-rrkjus.UPF: wavefunction(s)  1S renormalized

     Subspace diagonalization in iterative solution of the eigenvalue problem:
     a serial algorithm will be used


     Parallelization info
     --------------------
     sticks:   dense  smooth     PW     G-vecs:    dense   smooth      PW
     Min        3051    1746    432               270999   117096   14629
     Max        3053    1747    437               271001   117099   14630
     Sum       18313   10477   2611              1626001   702581   87777



     bravais-lattice index     =            4
     lattice parameter (alat)  =      23.2937  a.u.
     unit-cell volume          =    8879.8548 (a.u.)^3
     number of atoms/cell      =           52
     number of atomic types    =            3
     number of electrons       =       216.00
     number of Kohn-Sham states=          130
     kinetic-energy cutoff     =      70.0000  Ry
     charge density cutoff     =     490.0000  Ry
     convergence threshold     =      1.0E-06
     mixing beta               =       0.7000
     number of iterations used =            8  plain     mixing
     Exchange-correlation      = RVV10 ( 1  4 13  4 3 0)

     celldm(1)=  23.293684  celldm(2)=   0.000000  celldm(3)=   0.811261
     celldm(4)=   0.000000  celldm(5)=   0.000000  celldm(6)=   0.000000

     crystal axes: (cart. coord. in units of alat)
               a(1) = (   1.000000   0.000000   0.000000 )  
               a(2) = (  -0.500000   0.866025   0.000000 )  
               a(3) = (   0.000000   0.000000   0.811261 )  

     reciprocal axes: (cart. coord. in units 2 pi/alat)
               b(1) = (  1.000000  0.577350 -0.000000 )  
               b(2) = (  0.000000  1.154701  0.000000 )  
               b(3) = (  0.000000 -0.000000  1.232649 )  


     PseudoPot. # 1 for H  read from file:
     /home/cristian/Escritorio/Proyecto_Grafeno/pseudopotenciales/H.pbe-rrkjus.UPF
     MD5 check sum: 7cc9d459525c9a0585f487a71c3c9563
     Pseudo is Ultrasoft, Zval =  1.0
     Generated by new atomic code, or converted to UPF format
     Using radial grid of 1061 points,  2 beta functions with: 
                l(1) =   0
                l(2) =   0
     Q(r) pseudized with 0 coefficients 


     PseudoPot. # 2 for C  read from file:
     /home/cristian/Escritorio/Proyecto_Grafeno/pseudopotenciales/C.pbe-n-rrkjus_psl.1.0.0.UPF
     MD5 check sum: 1fdd950c42eb37d8afe3dd2f8d12311e
     Pseudo is Ultrasoft + core correction, Zval =  4.0
     Generated using "atomic" code by A. Dal Corso v.6.3MaX
     Using radial grid of 1073 points,  4 beta functions with: 
                l(1) =   0
                l(2) =   0
                l(3) =   1
                l(4) =   1
     Q(r) pseudized with 0 coefficients 


     PseudoPot. # 3 for Ni read from file:
     /home/cristian/Escritorio/Proyecto_Grafeno/pseudopotenciales/Ni.pbe-spn-rrkjus_psl.1.0.0.UPF
     MD5 check sum: 8b3fc9aac6dafe35f580d41bb18c3945
     Pseudo is Ultrasoft + core correction, Zval = 18.0
     Generated using "atomic" code by A. Dal Corso v.6.3
     Using radial grid of 1195 points,  6 beta functions with: 
                l(1) =   0
                l(2) =   0
                l(3) =   1
                l(4) =   1
                l(5) =   2
                l(6) =   2
     Q(r) pseudized with 0 coefficients 


     vdW kernel table read from file rVV10_kernel_table
     MD5 check sum: b8e2538accc0c0b3206b45ba4daaba6c

     atomic species   valence    mass     pseudopotential
        H              1.00     1.00794     H ( 1.00)
        C              4.00    12.01070     C ( 1.00)
        Ni            18.00    58.69340     Ni( 1.00)

     Starting magnetic structure 
     atomic species   magnetization
        H            0.500
        C            0.300
        Ni           0.800

     No symmetry found


                                    s                        frac. trans.

      isym =  1     identity                                     

 cryst.   s( 1) = (     1          0          0      )
                  (     0          1          0      )
                  (     0          0          1      )

 cart.    s( 1) = (  1.0000000  0.0000000  0.0000000 )
                  (  0.0000000  1.0000000  0.0000000 )
                  (  0.0000000  0.0000000  1.0000000 )


     point group C_1 (1)    
     there are  1 classes
     the character table:

       E    
A      1.00

     the symmetry operations in each class and the name of the first element:

     E        1
          identity                                               

   Cartesian axes

     site n.     atom                  positions (alat units)
         1           H   tau(   1) = (   0.2194937   0.4907477   0.1947027  )
         2           H   tau(   2) = (   0.2805063   0.4907477   0.1947027  )
         3           C   tau(   3) = (   0.0000000   0.0000000   0.0000000  )
         4           C   tau(   4) = (   0.0000000   0.1154701   0.0000000  )
         5           C   tau(   5) = (  -0.1000000   0.1732051   0.0000000  )
         6           C   tau(   6) = (  -0.1000000   0.2886751   0.0000000  )
         7           C   tau(   7) = (  -0.2000000   0.3464102   0.0000000  )
         8           C   tau(   8) = (  -0.2000000   0.4618802   0.0000000  )
         9           C   tau(   9) = (  -0.3000000   0.5196152   0.0000000  )
        10           C   tau(  10) = (  -0.3000000   0.6350853   0.0000000  )
        11           C   tau(  11) = (  -0.4000000   0.6928203   0.0000000  )
        12           C   tau(  12) = (  -0.4000000   0.8082904   0.0000000  )
        13           C   tau(  13) = (   0.2000000   0.0000000   0.0000000  )
        14           C   tau(  14) = (   0.2000000   0.1154701   0.0000000  )
        15           C   tau(  15) = (   0.1000000   0.1732051   0.0000000  )
        16           C   tau(  16) = (   0.1000000   0.2886751   0.0000000  )
        17           C   tau(  17) = (   0.0000000   0.3464102   0.0000000  )
        18           C   tau(  18) = (   0.0000000   0.4618802   0.0000000  )
        19           C   tau(  19) = (  -0.1000000   0.5196152   0.0000000  )
        20           C   tau(  20) = (  -0.1000000   0.6350853   0.0000000  )
        21           C   tau(  21) = (  -0.2000000   0.6928203   0.0000000  )
        22           C   tau(  22) = (  -0.2000000   0.8082904   0.0000000  )
        23           C   tau(  23) = (   0.4000000   0.0000000   0.0000000  )
        24           C   tau(  24) = (   0.4000000   0.1154701   0.0000000  )
        25           C   tau(  25) = (   0.3000000   0.1732051   0.0000000  )
        26           C   tau(  26) = (   0.3000000   0.2886751   0.0000000  )
        27           C   tau(  27) = (   0.2000000   0.3464102   0.0000000  )
        28           Ni  tau(  28) = (   0.2000000   0.4618802   0.0000000  )
        29           C   tau(  29) = (   0.1000000   0.5196152   0.0000000  )
        30           C   tau(  30) = (   0.1000000   0.6350853   0.0000000  )
        31           C   tau(  31) = (   0.0000000   0.6928203   0.0000000  )
        32           C   tau(  32) = (   0.0000000   0.8082904   0.0000000  )
        33           C   tau(  33) = (   0.6000000   0.0000000   0.0000000  )
        34           C   tau(  34) = (   0.6000000   0.1154701   0.0000000  )
        35           C   tau(  35) = (   0.5000000   0.1732051   0.0000000  )
        36           C   tau(  36) = (   0.5000000   0.2886751   0.0000000  )
        37           C   tau(  37) = (   0.4000000   0.3464102   0.0000000  )
        38           C   tau(  38) = (   0.4000000   0.4618802   0.0000000  )
        39           C   tau(  39) = (   0.3000000   0.5196152   0.0000000  )
        40           C   tau(  40) = (   0.3000000   0.6350853   0.0000000  )
        41           C   tau(  41) = (   0.2000000   0.6928203   0.0000000  )
        42           C   tau(  42) = (   0.2000000   0.8082904   0.0000000  )
        43           C   tau(  43) = (   0.8000000   0.0000000   0.0000000  )
        44           C   tau(  44) = (   0.8000000   0.1154701   0.0000000  )
        45           C   tau(  45) = (   0.7000000   0.1732051   0.0000000  )
        46           C   tau(  46) = (   0.7000000   0.2886751   0.0000000  )
        47           C   tau(  47) = (   0.6000000   0.3464102   0.0000000  )
        48           C   tau(  48) = (   0.6000000   0.4618802   0.0000000  )
        49           C   tau(  49) = (   0.5000000   0.5196152   0.0000000  )
        50           C   tau(  50) = (   0.5000000   0.6350853   0.0000000  )
        51           C   tau(  51) = (   0.4000000   0.6928203   0.0000000  )
        52           C   tau(  52) = (   0.4000000   0.8082904   0.0000000  )

   Crystallographic axes

     site n.     atom                  positions (cryst. coord.)
         1           H   tau(   1) = (  0.5028270  0.5666667  0.2400000  )
         2           H   tau(   2) = (  0.5638397  0.5666667  0.2400000  )
         3           C   tau(   3) = (  0.0000000  0.0000000  0.0000000  )
         4           C   tau(   4) = (  0.0666667  0.1333333  0.0000000  )
         5           C   tau(   5) = (  0.0000000  0.2000000  0.0000000  )
         6           C   tau(   6) = (  0.0666667  0.3333333  0.0000000  )
         7           C   tau(   7) = (  0.0000000  0.4000000  0.0000000  )
         8           C   tau(   8) = (  0.0666667  0.5333333  0.0000000  )
         9           C   tau(   9) = (  0.0000000  0.6000000  0.0000000  )
        10           C   tau(  10) = (  0.0666667  0.7333333  0.0000000  )
        11           C   tau(  11) = (  0.0000000  0.8000000  0.0000000  )
        12           C   tau(  12) = (  0.0666667  0.9333333  0.0000000  )
        13           C   tau(  13) = (  0.2000000  0.0000000  0.0000000  )
        14           C   tau(  14) = (  0.2666667  0.1333333  0.0000000  )
        15           C   tau(  15) = (  0.2000000  0.2000000  0.0000000  )
        16           C   tau(  16) = (  0.2666667  0.3333333  0.0000000  )
        17           C   tau(  17) = (  0.2000000  0.4000000  0.0000000  )
        18           C   tau(  18) = (  0.2666667  0.5333333  0.0000000  )
        19           C   tau(  19) = (  0.2000000  0.6000000  0.0000000  )
        20           C   tau(  20) = (  0.2666667  0.7333333  0.0000000  )
        21           C   tau(  21) = (  0.2000000  0.8000000  0.0000000  )
        22           C   tau(  22) = (  0.2666667  0.9333333  0.0000000  )
        23           C   tau(  23) = (  0.4000000  0.0000000  0.0000000  )
        24           C   tau(  24) = (  0.4666667  0.1333333  0.0000000  )
        25           C   tau(  25) = (  0.4000000  0.2000000  0.0000000  )
        26           C   tau(  26) = (  0.4666667  0.3333333  0.0000000  )
        27           C   tau(  27) = (  0.4000000  0.4000000  0.0000000  )
        28           Ni  tau(  28) = (  0.4666667  0.5333333  0.0000000  )
        29           C   tau(  29) = (  0.4000000  0.6000000  0.0000000  )
        30           C   tau(  30) = (  0.4666667  0.7333333  0.0000000  )
        31           C   tau(  31) = (  0.4000000  0.8000000  0.0000000  )
        32           C   tau(  32) = (  0.4666667  0.9333333  0.0000000  )
        33           C   tau(  33) = (  0.6000000  0.0000000  0.0000000  )
        34           C   tau(  34) = (  0.6666667  0.1333333  0.0000000  )
        35           C   tau(  35) = (  0.6000000  0.2000000  0.0000000  )
        36           C   tau(  36) = (  0.6666667  0.3333333  0.0000000  )
        37           C   tau(  37) = (  0.6000000  0.4000000  0.0000000  )
        38           C   tau(  38) = (  0.6666667  0.5333333  0.0000000  )
        39           C   tau(  39) = (  0.6000000  0.6000000  0.0000000  )
        40           C   tau(  40) = (  0.6666667  0.7333333  0.0000000  )
        41           C   tau(  41) = (  0.6000000  0.8000000  0.0000000  )
        42           C   tau(  42) = (  0.6666667  0.9333333  0.0000000  )
        43           C   tau(  43) = (  0.8000000  0.0000000  0.0000000  )
        44           C   tau(  44) = (  0.8666667  0.1333333  0.0000000  )
        45           C   tau(  45) = (  0.8000000  0.2000000  0.0000000  )
        46           C   tau(  46) = (  0.8666667  0.3333333  0.0000000  )
        47           C   tau(  47) = (  0.8000000  0.4000000  0.0000000  )
        48           C   tau(  48) = (  0.8666667  0.5333333  0.0000000  )
        49           C   tau(  49) = (  0.8000000  0.6000000  0.0000000  )
        50           C   tau(  50) = (  0.8666667  0.7333333  0.0000000  )
        51           C   tau(  51) = (  0.8000000  0.8000000  0.0000000  )
        52           C   tau(  52) = (  0.8666667  0.9333333  0.0000000  )

     number of k points=     1  Marzari-Vanderbilt smearing, width (Ry)=  0.0010
                       cart. coord. in units 2pi/alat
        k(    1) = (   0.0000000   0.0000000   0.0000000), wk =   1.0000000

                       cryst. coord.
        k(    1) = (   0.0000000   0.0000000   0.0000000), wk =   1.0000000

     Dense  grid:  1626001 G-vectors     FFT dimensions: ( 180, 180, 135)

     Smooth grid:   702581 G-vectors     FFT dimensions: ( 125, 125, 108)

     Dynamical RAM for                 wfc:      29.03 MB

     Dynamical RAM for     wfc (w. buffer):      87.10 MB

     Dynamical RAM for           str. fact:      12.41 MB

     Dynamical RAM for           local pot:       0.00 MB

     Dynamical RAM for          nlocal pot:      92.46 MB

     Dynamical RAM for                qrad:      19.73 MB

     Dynamical RAM for          rho,v,vnew:      58.92 MB

     Dynamical RAM for               rhoin:      19.64 MB

     Dynamical RAM for            rho*nmix:     132.32 MB

     Dynamical RAM for           G-vectors:      16.40 MB

     Dynamical RAM for          h,s,v(r/c):      12.38 MB

     Dynamical RAM for          <psi|beta>:       0.82 MB

     Dynamical RAM for                 psi:     116.14 MB

     Dynamical RAM for                hpsi:     116.14 MB

     Dynamical RAM for                spsi:     116.14 MB

     Dynamical RAM for      wfcinit/wfcrot:      93.90 MB

     Dynamical RAM for           addusdens:     975.89 MB

     Estimated static dynamical RAM per process >     489.64 MB

     Estimated max dynamical RAM per process >       1.43 GB

     Estimated total dynamical RAM >       8.59 GB
     Generating pointlists ...
     new r_m :   0.0252 (alat units)  0.5862 (a.u.) for type    1
     new r_m :   0.0476 (alat units)  1.1095 (a.u.) for type    2
     new r_m :   0.0476 (alat units)  1.1095 (a.u.) for type    3

     Check: negative core charge=   -0.000002

     Initial potential from superposition of free atoms

     starting charge  215.80530, renormalised to  216.00000

     negative rho (up, down):  1.600E-04 1.754E-02


---------------------------------------------------------------------------------
Carrying out rVV10 run using the following parameters:
Nqs =      20    Nr_points =    1024   r_max =   100.000
b_value =  6.30000    beta =  0.00901
     q_mesh =  0.00010000  0.00030000  0.00058939  0.00100810
               0.00161396  0.00249058  0.00375900  0.00559430
               0.00824984  0.01209221  0.01765183  0.02569619
               0.03733578  0.05417739  0.07854596  0.11380545
               0.16482331  0.23864234  0.34545298  0.50000000

Gradients computed in Reciprocal space

---------------------------------------------------------------------------------


     Starting wfcs are  208 randomized atomic wfcs

     total cpu time spent up to now is       90.6 secs

     Self-consistent Calculation

     iteration #  1     ecut=    70.00 Ry     beta= 0.70
     Davidson diagonalization with overlap
     ethr =  1.00E-02,  avg # of iterations =  7.5

     negative rho (up, down):  3.140E-04 1.531E-02

     total cpu time spent up to now is      259.2 secs

     total energy              =    -946.91949449 Ry
     Harris-Foulkes estimate   =    -949.66368153 Ry
     estimated scf accuracy    <      13.91784404 Ry

     total magnetization       =     6.00 Bohr mag/cell
     absolute magnetization    =     6.73 Bohr mag/cell

     iteration #  2     ecut=    70.00 Ry     beta= 0.70
     Davidson diagonalization with overlap
     ethr =  6.44E-03,  avg # of iterations =  3.0

     negative rho (up, down):  9.626E-03 2.885E-01

     total cpu time spent up to now is      404.0 secs

     total energy              =    -949.61975425 Ry
     Harris-Foulkes estimate   =    -956.29184497 Ry
     estimated scf accuracy    <      35.14113299 Ry

     total magnetization       =     4.00 Bohr mag/cell
     absolute magnetization    =     8.01 Bohr mag/cell

     iteration #  3     ecut=    70.00 Ry     beta= 0.70
     Davidson diagonalization with overlap
     ethr =  6.44E-03,  avg # of iterations =  3.5

     negative rho (up, down):  2.710E-02 5.341E-01

     total cpu time spent up to now is      535.7 secs

     total energy              =    -951.87149025 Ry
     Harris-Foulkes estimate   =    -961.43946660 Ry
     estimated scf accuracy    <     555.63965034 Ry

     total magnetization       =     0.00 Bohr mag/cell
     absolute magnetization    =    34.56 Bohr mag/cell

     iteration #  4     ecut=    70.00 Ry     beta= 0.70
     Davidson diagonalization with overlap
     ethr =  6.44E-03,  avg # of iterations =  4.0

     negative rho (up, down):  4.872E-03 5.101E-01

     total cpu time spent up to now is      652.4 secs

     total energy              =    -946.02997459 Ry
     Harris-Foulkes estimate   =    -954.42121836 Ry
     estimated scf accuracy    <     146.78458001 Ry

     total magnetization       =     2.36 Bohr mag/cell
     absolute magnetization    =    19.24 Bohr mag/cell

     iteration #  5     ecut=    70.00 Ry     beta= 0.70
     Davidson diagonalization with overlap
     ethr =  6.44E-03,  avg # of iterations =  4.0

     negative rho (up, down):  1.184E-01 4.314E-01

     total cpu time spent up to now is      796.2 secs

     total energy              =    -952.76656951 Ry
     Harris-Foulkes estimate   =    -956.55689719 Ry
     estimated scf accuracy    <     316.72777786 Ry

     total magnetization       =     2.00 Bohr mag/cell
     absolute magnetization    =    28.07 Bohr mag/cell

     iteration #  6     ecut=    70.00 Ry     beta= 0.70
     Davidson diagonalization with overlap
     ethr =  6.44E-03,  avg # of iterations =  2.0

     negative rho (up, down):  1.182E-01 4.423E-01

     total cpu time spent up to now is      906.5 secs

     total energy              =    -949.39576158 Ry
     Harris-Foulkes estimate   =    -953.78353838 Ry
     estimated scf accuracy    <     156.78367134 Ry

     total magnetization       =     2.00 Bohr mag/cell
     absolute magnetization    =    20.14 Bohr mag/cell

     iteration #  7     ecut=    70.00 Ry     beta= 0.70
     Davidson diagonalization with overlap
     ethr =  6.44E-03,  avg # of iterations =  2.5

     negative rho (up, down):  1.664E-02 4.079E-01

     total cpu time spent up to now is     1025.2 secs

     total energy              =    -953.28012584 Ry
     Harris-Foulkes estimate   =    -951.89330514 Ry
     estimated scf accuracy    <      22.81098434 Ry

     total magnetization       =     2.03 Bohr mag/cell
     absolute magnetization    =     8.55 Bohr mag/cell

     iteration #  8     ecut=    70.00 Ry     beta= 0.70
     Davidson diagonalization with overlap
     ethr =  6.44E-03,  avg # of iterations =  3.0

     negative rho (up, down):  5.957E-02 4.708E-01

     total cpu time spent up to now is     1139.9 secs

     total energy              =    -947.54357911 Ry
     Harris-Foulkes estimate   =    -955.79266341 Ry
     estimated scf accuracy    <     259.66356723 Ry

     total magnetization       =    -0.00 Bohr mag/cell
     absolute magnetization    =    24.36 Bohr mag/cell

     iteration #  9     ecut=    70.00 Ry     beta= 0.70
     Davidson diagonalization with overlap
     ethr =  6.44E-03,  avg # of iterations =  2.0

     negative rho (up, down):  3.270E-02 3.754E-01

     total cpu time spent up to now is     1255.5 secs

     total energy              =    -951.69954640 Ry
     Harris-Foulkes estimate   =    -951.65874905 Ry
     estimated scf accuracy    <       7.11414414 Ry

     total magnetization       =     0.00 Bohr mag/cell
     absolute magnetization    =     3.68 Bohr mag/cell

     iteration # 10     ecut=    70.00 Ry     beta= 0.70
     Davidson diagonalization with overlap
     ethr =  3.29E-03,  avg # of iterations =  1.5

     negative rho (up, down):  9.838E-03 3.614E-01

     total cpu time spent up to now is     1361.3 secs

     total energy              =    -951.56763446 Ry
     Harris-Foulkes estimate   =    -951.91940182 Ry
     estimated scf accuracy    <      11.03284313 Ry

     total magnetization       =    -0.00 Bohr mag/cell
     absolute magnetization    =     5.22 Bohr mag/cell

     iteration # 11     ecut=    70.00 Ry     beta= 0.70
     Davidson diagonalization with overlap
     ethr =  3.29E-03,  avg # of iterations =  1.5

     negative rho (up, down):  2.022E-02 1.673E-01

     total cpu time spent up to now is     1468.2 secs

     total energy              =    -951.80661333 Ry
     Harris-Foulkes estimate   =    -951.86451596 Ry
     estimated scf accuracy    <       1.18925868 Ry

     total magnetization       =     0.00 Bohr mag/cell
     absolute magnetization    =     0.79 Bohr mag/cell

     iteration # 12     ecut=    70.00 Ry     beta= 0.70
     Davidson diagonalization with overlap
     ethr =  5.51E-04,  avg # of iterations =  5.5

     negative rho (up, down):  1.262E-02 1.709E-01

     total cpu time spent up to now is     1579.3 secs

     total energy              =    -951.81805160 Ry
     Harris-Foulkes estimate   =    -951.89254850 Ry
     estimated scf accuracy    <       1.29860261 Ry

     total magnetization       =    -0.00 Bohr mag/cell
     absolute magnetization    =     1.44 Bohr mag/cell

     iteration # 13     ecut=    70.00 Ry     beta= 0.70
     Davidson diagonalization with overlap
     ethr =  5.51E-04,  avg # of iterations =  2.0

     negative rho (up, down):  1.382E-02 2.772E-01

     total cpu time spent up to now is     1686.3 secs

     total energy              =    -951.80237233 Ry
     Harris-Foulkes estimate   =    -951.90603086 Ry
     estimated scf accuracy    <       1.97592194 Ry

     total magnetization       =    -0.00 Bohr mag/cell
     absolute magnetization    =     1.93 Bohr mag/cell

     iteration # 14     ecut=    70.00 Ry     beta= 0.70
     Davidson diagonalization with overlap
     ethr =  5.51E-04,  avg # of iterations =  2.0

     negative rho (up, down):  9.808E-03 1.234E-01

     total cpu time spent up to now is     1793.6 secs

     total energy              =    -951.84799150 Ry
     Harris-Foulkes estimate   =    -951.87016771 Ry
     estimated scf accuracy    <       0.49503788 Ry

     total magnetization       =    -0.00 Bohr mag/cell
     absolute magnetization    =     0.45 Bohr mag/cell

     iteration # 15     ecut=    70.00 Ry     beta= 0.70
     Davidson diagonalization with overlap
     ethr =  2.29E-04,  avg # of iterations =  1.5

     negative rho (up, down):  4.567E-03 9.065E-02

     total cpu time spent up to now is     1898.0 secs

     total energy              =    -951.86314869 Ry
     Harris-Foulkes estimate   =    -951.86374454 Ry
     estimated scf accuracy    <       0.04180116 Ry

     total magnetization       =     0.00 Bohr mag/cell
     absolute magnetization    =     0.27 Bohr mag/cell

     iteration # 16     ecut=    70.00 Ry     beta= 0.70
     Davidson diagonalization with overlap
     ethr =  1.94E-05,  avg # of iterations =  7.5

     negative rho (up, down):  1.449E-02 3.109E-01

     total cpu time spent up to now is     2028.3 secs

     total energy              =    -951.87866504 Ry
     Harris-Foulkes estimate   =    -951.89599934 Ry
     estimated scf accuracy    <       1.79562536 Ry

     total magnetization       =    -0.00 Bohr mag/cell
     absolute magnetization    =     1.90 Bohr mag/cell

     iteration # 17     ecut=    70.00 Ry     beta= 0.70
     Davidson diagonalization with overlap
     ethr =  1.94E-05,  avg # of iterations =  3.0

     negative rho (up, down):  1.928E-02 3.091E-01

     total cpu time spent up to now is     2137.8 secs

     total energy              =    -951.83766806 Ry
     Harris-Foulkes estimate   =    -951.87950397 Ry
     estimated scf accuracy    <       1.31637510 Ry

     total magnetization       =     0.16 Bohr mag/cell
     absolute magnetization    =     1.71 Bohr mag/cell

     iteration # 18     ecut=    70.00 Ry     beta= 0.70
     Davidson diagonalization with overlap
     ethr =  1.94E-05,  avg # of iterations =  3.0

     negative rho (up, down):  8.248E-03 2.285E-01

     total cpu time spent up to now is     2252.4 secs

     total energy              =    -951.86938133 Ry
     Harris-Foulkes estimate   =    -951.85525358 Ry
     estimated scf accuracy    <       0.06362390 Ry

     total magnetization       =     0.00 Bohr mag/cell
     absolute magnetization    =     0.43 Bohr mag/cell

     iteration # 19     ecut=    70.00 Ry     beta= 0.70
     Davidson diagonalization with overlap
     ethr =  1.94E-05,  avg # of iterations =  3.0

     negative rho (up, down):  1.225E-02 2.969E-01

     total cpu time spent up to now is     2375.6 secs

     total energy              =    -951.82468763 Ry
     Harris-Foulkes estimate   =    -951.89575690 Ry
     estimated scf accuracy    <       2.15770046 Ry

     total magnetization       =    -0.00 Bohr mag/cell
     absolute magnetization    =     2.24 Bohr mag/cell

     iteration # 20     ecut=    70.00 Ry     beta= 0.70
     Davidson diagonalization with overlap
     ethr =  1.94E-05,  avg # of iterations =  3.5

     negative rho (up, down):  6.161E-03 2.173E-01

     total cpu time spent up to now is     2501.9 secs

     total energy              =    -951.86172414 Ry
     Harris-Foulkes estimate   =    -951.85614594 Ry
     estimated scf accuracy    <       0.03814754 Ry

     total magnetization       =    -0.00 Bohr mag/cell
     absolute magnetization    =     0.25 Bohr mag/cell

     iteration # 21     ecut=    70.00 Ry     beta= 0.70
     Davidson diagonalization with overlap
     ethr =  1.77E-05,  avg # of iterations =  4.0

     negative rho (up, down):  7.879E-03 2.238E-01

     total cpu time spent up to now is     2621.7 secs

     total energy              =    -951.87563353 Ry
     Harris-Foulkes estimate   =    -951.87251342 Ry
     estimated scf accuracy    <       0.41257862 Ry

     total magnetization       =     0.00 Bohr mag/cell
     absolute magnetization    =     0.86 Bohr mag/cell

     iteration # 22     ecut=    70.00 Ry     beta= 0.70
     Davidson diagonalization with overlap
     ethr =  1.77E-05,  avg # of iterations =  2.5

     negative rho (up, down):  6.062E-03 2.900E-01

     total cpu time spent up to now is     2731.7 secs

     total energy              =    -951.85139454 Ry
     Harris-Foulkes estimate   =    -951.87881108 Ry
     estimated scf accuracy    <       0.81889355 Ry

     total magnetization       =    -0.00 Bohr mag/cell
     absolute magnetization    =     1.34 Bohr mag/cell

     iteration # 23     ecut=    70.00 Ry     beta= 0.70
     Davidson diagonalization with overlap
     ethr =  1.77E-05,  avg # of iterations =  2.0

     negative rho (up, down):  2.594E-03 2.549E-01

     total cpu time spent up to now is     2849.3 secs

     total energy              =    -951.86212822 Ry
     Harris-Foulkes estimate   =    -951.86101427 Ry
     estimated scf accuracy    <       0.06058158 Ry

     total magnetization       =    -0.00 Bohr mag/cell
     absolute magnetization    =     0.38 Bohr mag/cell

     iteration # 24     ecut=    70.00 Ry     beta= 0.70
     Davidson diagonalization with overlap
     ethr =  1.77E-05,  avg # of iterations =  2.5

     negative rho (up, down):  1.571E-03 1.884E-01

     total cpu time spent up to now is     2956.0 secs

     total energy              =    -951.86468992 Ry
     Harris-Foulkes estimate   =    -951.86366265 Ry
     estimated scf accuracy    <       0.00508836 Ry

     total magnetization       =     0.06 Bohr mag/cell
     absolute magnetization    =     0.17 Bohr mag/cell

     iteration # 25     ecut=    70.00 Ry     beta= 0.70
     Davidson diagonalization with overlap
     ethr =  2.36E-06,  avg # of iterations =  4.0

     negative rho (up, down):  2.099E-03 9.655E-02

     total cpu time spent up to now is     3081.8 secs

     total energy              =    -951.86471120 Ry
     Harris-Foulkes estimate   =    -951.86601642 Ry
     estimated scf accuracy    <       0.03242542 Ry

     total magnetization       =     0.00 Bohr mag/cell
     absolute magnetization    =     0.24 Bohr mag/cell

     iteration # 26     ecut=    70.00 Ry     beta= 0.70
     Davidson diagonalization with overlap
     ethr =  2.36E-06,  avg # of iterations =  3.0

     negative rho (up, down):  1.311E-03 8.266E-02

     total cpu time spent up to now is     3199.7 secs

     total energy              =    -951.86658856 Ry
     Harris-Foulkes estimate   =    -951.86594102 Ry
     estimated scf accuracy    <       0.00939461 Ry

     total magnetization       =     0.00 Bohr mag/cell
     absolute magnetization    =     0.17 Bohr mag/cell

     iteration # 27     ecut=    70.00 Ry     beta= 0.70
     Davidson diagonalization with overlap
     ethr =  2.36E-06,  avg # of iterations =  2.0

     negative rho (up, down):  1.886E-03 2.000E-01

     total cpu time spent up to now is     3309.6 secs

     total energy              =    -951.86633396 Ry
     Harris-Foulkes estimate   =    -951.86703618 Ry
     estimated scf accuracy    <       0.05577418 Ry

     total magnetization       =    -0.00 Bohr mag/cell
     absolute magnetization    =     0.37 Bohr mag/cell

     iteration # 28     ecut=    70.00 Ry     beta= 0.70
     Davidson diagonalization with overlap
     ethr =  2.36E-06,  avg # of iterations =  4.0

     negative rho (up, down):  2.384E-03 2.135E-01

     total cpu time spent up to now is     3417.2 secs

     total energy              =    -951.86509849 Ry
     Harris-Foulkes estimate   =    -951.86637442 Ry
     estimated scf accuracy    <       0.06127955 Ry

     total magnetization       =    -0.00 Bohr mag/cell
     absolute magnetization    =     0.37 Bohr mag/cell

     iteration # 29     ecut=    70.00 Ry     beta= 0.70
     Davidson diagonalization with overlap
     ethr =  2.36E-06,  avg # of iterations =  2.5

     negative rho (up, down):  2.260E-03 2.123E-01

     total cpu time spent up to now is     3531.9 secs

     total energy              =    -951.86507199 Ry
     Harris-Foulkes estimate   =    -951.86573613 Ry
     estimated scf accuracy    <       0.05849162 Ry

     total magnetization       =     0.14 Bohr mag/cell
     absolute magnetization    =     0.49 Bohr mag/cell

     iteration # 30     ecut=    70.00 Ry     beta= 0.70
     Davidson diagonalization with overlap
     ethr =  2.36E-06,  avg # of iterations =  3.0

     negative rho (up, down):  2.105E-03 1.968E-01

     total cpu time spent up to now is     3643.9 secs

     total energy              =    -951.86494804 Ry
     Harris-Foulkes estimate   =    -951.86541975 Ry
     estimated scf accuracy    <       0.02961546 Ry

     total magnetization       =     0.16 Bohr mag/cell
     absolute magnetization    =     0.39 Bohr mag/cell

     iteration # 31     ecut=    70.00 Ry     beta= 0.70
     Davidson diagonalization with overlap
     ethr =  2.36E-06,  avg # of iterations =  2.0

     negative rho (up, down):  1.503E-03 1.559E-01

     total cpu time spent up to now is     3751.1 secs

     total energy              =    -951.86579868 Ry
     Harris-Foulkes estimate   =    -951.86537150 Ry
     estimated scf accuracy    <       0.00649066 Ry

     total magnetization       =    -0.00 Bohr mag/cell
     absolute magnetization    =     0.14 Bohr mag/cell

     iteration # 32     ecut=    70.00 Ry     beta= 0.70
     Davidson diagonalization with overlap
     ethr =  2.36E-06,  avg # of iterations =  3.0

     negative rho (up, down):  1.272E-03 1.286E-01

     total cpu time spent up to now is     3858.8 secs

     total energy              =    -951.86616903 Ry
     Harris-Foulkes estimate   =    -951.86587610 Ry
     estimated scf accuracy    <       0.00569216 Ry

     total magnetization       =     0.00 Bohr mag/cell
     absolute magnetization    =     0.14 Bohr mag/cell

     iteration # 33     ecut=    70.00 Ry     beta= 0.70
     Davidson diagonalization with overlap
     ethr =  2.36E-06,  avg # of iterations =  2.0

     negative rho (up, down):  1.402E-03 1.336E-01

     total cpu time spent up to now is     3962.9 secs

     total energy              =    -951.86597633 Ry
     Harris-Foulkes estimate   =    -951.86620743 Ry
     estimated scf accuracy    <       0.00914750 Ry

     total magnetization       =     0.00 Bohr mag/cell
     absolute magnetization    =     0.16 Bohr mag/cell

     iteration # 34     ecut=    70.00 Ry     beta= 0.70
     Davidson diagonalization with overlap
     ethr =  2.36E-06,  avg # of iterations =  2.0

     negative rho (up, down):  1.532E-03 1.317E-01

     total cpu time spent up to now is     4067.3 secs

     total energy              =    -951.86573696 Ry
     Harris-Foulkes estimate   =    -951.86619420 Ry
     estimated scf accuracy    <       0.01049209 Ry

     total magnetization       =    -0.00 Bohr mag/cell
     absolute magnetization    =     0.16 Bohr mag/cell

     iteration # 35     ecut=    70.00 Ry     beta= 0.70
     Davidson diagonalization with overlap
     ethr =  2.36E-06,  avg # of iterations =  2.0

     negative rho (up, down):  1.771E-03 8.198E-02

     total cpu time spent up to now is     4176.4 secs

     total energy              =    -951.86642304 Ry
     Harris-Foulkes estimate   =    -951.86609651 Ry
     estimated scf accuracy    <       0.01139105 Ry

     total magnetization       =    -0.00 Bohr mag/cell
     absolute magnetization    =     0.14 Bohr mag/cell

     iteration # 36     ecut=    70.00 Ry     beta= 0.70
     Davidson diagonalization with overlap
     ethr =  2.36E-06,  avg # of iterations =  3.0

     negative rho (up, down):  5.494E-03 2.698E-01

     total cpu time spent up to now is     4307.7 secs

     total energy              =    -951.85404117 Ry
     Harris-Foulkes estimate   =    -951.87599119 Ry
     estimated scf accuracy    <       0.59926677 Ry

     total magnetization       =    -0.00 Bohr mag/cell
     absolute magnetization    =     1.14 Bohr mag/cell

     iteration # 37     ecut=    70.00 Ry     beta= 0.70
     Davidson diagonalization with overlap
     ethr =  2.36E-06,  avg # of iterations =  4.5

     negative rho (up, down):  2.997E-03 1.861E-01

     total cpu time spent up to now is     4441.9 secs

     total energy              =    -951.86467772 Ry
     Harris-Foulkes estimate   =    -951.86243096 Ry
     estimated scf accuracy    <       0.02153396 Ry

     total magnetization       =     0.12 Bohr mag/cell
     absolute magnetization    =     0.30 Bohr mag/cell

     iteration # 38     ecut=    70.00 Ry     beta= 0.70
     Davidson diagonalization with overlap
     ethr =  2.36E-06,  avg # of iterations =  4.0

     negative rho (up, down):  1.991E-03 1.518E-01

     total cpu time spent up to now is     4552.2 secs

     total energy              =    -951.86596652 Ry
     Harris-Foulkes estimate   =    -951.86513822 Ry
     estimated scf accuracy    <       0.01160816 Ry

     total magnetization       =    -0.00 Bohr mag/cell
     absolute magnetization    =     0.17 Bohr mag/cell

     iteration # 39     ecut=    70.00 Ry     beta= 0.70
     Davidson diagonalization with overlap
     ethr =  2.36E-06,  avg # of iterations =  2.5

     negative rho (up, down):  1.810E-03 1.797E-01

     total cpu time spent up to now is     4660.1 secs

     total energy              =    -951.86561375 Ry
     Harris-Foulkes estimate   =    -951.86612088 Ry
     estimated scf accuracy    <       0.02953381 Ry

     total magnetization       =    -0.00 Bohr mag/cell
     absolute magnetization    =     0.27 Bohr mag/cell

     iteration # 40     ecut=    70.00 Ry     beta= 0.70
     Davidson diagonalization with overlap
     ethr =  2.36E-06,  avg # of iterations =  2.0

     negative rho (up, down):  1.759E-03 1.930E-01

     total cpu time spent up to now is     4770.6 secs

     total energy              =    -951.86566681 Ry
     Harris-Foulkes estimate   =    -951.86604405 Ry
     estimated scf accuracy    <       0.03090126 Ry

     total magnetization       =     0.00 Bohr mag/cell
     absolute magnetization    =     0.27 Bohr mag/cell

     iteration # 41     ecut=    70.00 Ry     beta= 0.70
     Davidson diagonalization with overlap
     ethr =  2.36E-06,  avg # of iterations =  2.0

     negative rho (up, down):  1.472E-03 1.803E-01

     total cpu time spent up to now is     4875.1 secs

     total energy              =    -951.86515084 Ry
     Harris-Foulkes estimate   =    -951.86573865 Ry
     estimated scf accuracy    <       0.01322424 Ry

     total magnetization       =    -0.00 Bohr mag/cell
     absolute magnetization    =     0.18 Bohr mag/cell

     iteration # 42     ecut=    70.00 Ry     beta= 0.70
     Davidson diagonalization with overlap
     ethr =  2.36E-06,  avg # of iterations =  2.0

     negative rho (up, down):  1.622E-03 4.876E-02

     total cpu time spent up to now is     4985.4 secs

     total energy              =    -951.86594241 Ry
     Harris-Foulkes estimate   =    -951.86581705 Ry
     estimated scf accuracy    <       0.00779806 Ry

     total magnetization       =     0.00 Bohr mag/cell
     absolute magnetization    =     0.09 Bohr mag/cell

     iteration # 43     ecut=    70.00 Ry     beta= 0.70
     Davidson diagonalization with overlap
     ethr =  2.36E-06,  avg # of iterations =  3.0

     negative rho (up, down):  1.234E-03 4.802E-02

     total cpu time spent up to now is     5096.5 secs

     total energy              =    -951.86611846 Ry
     Harris-Foulkes estimate   =    -951.86625876 Ry
     estimated scf accuracy    <       0.00304603 Ry

     total magnetization       =    -0.00 Bohr mag/cell
     absolute magnetization    =     0.08 Bohr mag/cell

     iteration # 44     ecut=    70.00 Ry     beta= 0.70
     Davidson diagonalization with overlap
     ethr =  1.41E-06,  avg # of iterations =  2.0

     negative rho (up, down):  1.299E-03 5.885E-02

     total cpu time spent up to now is     5201.6 secs

     total energy              =    -951.86606984 Ry
     Harris-Foulkes estimate   =    -951.86629643 Ry
     estimated scf accuracy    <       0.00175978 Ry

     total magnetization       =    -0.00 Bohr mag/cell
     absolute magnetization    =     0.06 Bohr mag/cell

     iteration # 45     ecut=    70.00 Ry     beta= 0.70
     Davidson diagonalization with overlap
     ethr =  8.15E-07,  avg # of iterations =  2.0

     negative rho (up, down):  1.851E-03 6.784E-02

     total cpu time spent up to now is     5314.3 secs

     total energy              =    -951.86567685 Ry
     Harris-Foulkes estimate   =    -951.86639519 Ry
     estimated scf accuracy    <       0.00991033 Ry

     total magnetization       =    -0.00 Bohr mag/cell
     absolute magnetization    =     0.12 Bohr mag/cell

     iteration # 46     ecut=    70.00 Ry     beta= 0.70
     Davidson diagonalization with overlap
     ethr =  8.15E-07,  avg # of iterations =  2.5

     negative rho (up, down):  1.235E-03 6.948E-02

     total cpu time spent up to now is     5429.3 secs

     total energy              =    -951.86621854 Ry
     Harris-Foulkes estimate   =    -951.86605844 Ry
     estimated scf accuracy    <       0.00450852 Ry

     total magnetization       =    -0.00 Bohr mag/cell
     absolute magnetization    =     0.11 Bohr mag/cell

     iteration # 47     ecut=    70.00 Ry     beta= 0.70
     Davidson diagonalization with overlap
     ethr =  8.15E-07,  avg # of iterations =  2.5

     negative rho (up, down):  1.361E-03 7.642E-02

     total cpu time spent up to now is     5535.8 secs

     total energy              =    -951.86614633 Ry
     Harris-Foulkes estimate   =    -951.86627337 Ry
     estimated scf accuracy    <       0.00320123 Ry

     total magnetization       =     0.00 Bohr mag/cell
     absolute magnetization    =     0.09 Bohr mag/cell

     iteration # 48     ecut=    70.00 Ry     beta= 0.70
     Davidson diagonalization with overlap
     ethr =  8.15E-07,  avg # of iterations =  1.5

     negative rho (up, down):  1.365E-03 7.779E-02

     total cpu time spent up to now is     5641.1 secs

     total energy              =    -951.86625161 Ry
     Harris-Foulkes estimate   =    -951.86622248 Ry
     estimated scf accuracy    <       0.00277288 Ry

     total magnetization       =     0.00 Bohr mag/cell
     absolute magnetization    =     0.08 Bohr mag/cell

     iteration # 49     ecut=    70.00 Ry     beta= 0.70
     Davidson diagonalization with overlap
     ethr =  8.15E-07,  avg # of iterations =  2.0

     negative rho (up, down):  1.386E-03 1.294E-01

     total cpu time spent up to now is     5747.7 secs

     total energy              =    -951.86588726 Ry
     Harris-Foulkes estimate   =    -951.86632530 Ry
     estimated scf accuracy    <       0.01052960 Ry

     total magnetization       =     0.00 Bohr mag/cell
     absolute magnetization    =     0.16 Bohr mag/cell

     iteration # 50     ecut=    70.00 Ry     beta= 0.70
     Davidson diagonalization with overlap
     ethr =  8.15E-07,  avg # of iterations =  2.0

     negative rho (up, down):  1.323E-03 1.164E-01

     total cpu time spent up to now is     5858.5 secs

     total energy              =    -951.86614580 Ry
     Harris-Foulkes estimate   =    -951.86604496 Ry
     estimated scf accuracy    <       0.00472028 Ry

     total magnetization       =     0.00 Bohr mag/cell
     absolute magnetization    =     0.11 Bohr mag/cell

     iteration # 51     ecut=    70.00 Ry     beta= 0.70
     Davidson diagonalization with overlap
     ethr =  8.15E-07,  avg # of iterations =  1.0

     negative rho (up, down):  1.284E-03 1.179E-01

     total cpu time spent up to now is     5961.8 secs

     total energy              =    -951.86594239 Ry
     Harris-Foulkes estimate   =    -951.86614789 Ry
     estimated scf accuracy    <       0.00386806 Ry

     total magnetization       =    -0.00 Bohr mag/cell
     absolute magnetization    =     0.10 Bohr mag/cell

     iteration # 52     ecut=    70.00 Ry     beta= 0.70
     Davidson diagonalization with overlap
     ethr =  8.15E-07,  avg # of iterations =  2.0

     negative rho (up, down):  1.383E-03 1.683E-02

     total cpu time spent up to now is     6071.8 secs

     total energy              =    -951.86617135 Ry
     Harris-Foulkes estimate   =    -951.86614046 Ry
     estimated scf accuracy    <       0.00248017 Ry

     total magnetization       =    -0.00 Bohr mag/cell
     absolute magnetization    =     0.04 Bohr mag/cell

     iteration # 53     ecut=    70.00 Ry     beta= 0.70
     Davidson diagonalization with overlap
     ethr =  8.15E-07,  avg # of iterations =  3.0

     negative rho (up, down):  1.231E-03 3.890E-02

     total cpu time spent up to now is     6187.7 secs

     total energy              =    -951.86622212 Ry
     Harris-Foulkes estimate   =    -951.86628407 Ry
     estimated scf accuracy    <       0.00137050 Ry

     total magnetization       =    -0.00 Bohr mag/cell
     absolute magnetization    =     0.05 Bohr mag/cell

     iteration # 54     ecut=    70.00 Ry     beta= 0.70
     Davidson diagonalization with overlap
     ethr =  6.34E-07,  avg # of iterations =  2.0

     negative rho (up, down):  1.335E-03 6.374E-02

     total cpu time spent up to now is     6301.1 secs

     total energy              =    -951.86606246 Ry
     Harris-Foulkes estimate   =    -951.86634522 Ry
     estimated scf accuracy    <       0.00254712 Ry

     total magnetization       =    -0.00 Bohr mag/cell
     absolute magnetization    =     0.06 Bohr mag/cell

     iteration # 55     ecut=    70.00 Ry     beta= 0.70
     Davidson diagonalization with overlap
     ethr =  6.34E-07,  avg # of iterations =  2.5

     negative rho (up, down):  1.628E-03 5.443E-02

     total cpu time spent up to now is     6426.0 secs

     total energy              =    -951.86583365 Ry
     Harris-Foulkes estimate   =    -951.86631056 Ry
     estimated scf accuracy    <       0.00596409 Ry

     total magnetization       =    -0.00 Bohr mag/cell
     absolute magnetization    =     0.08 Bohr mag/cell

     iteration # 56     ecut=    70.00 Ry     beta= 0.70
     Davidson diagonalization with overlap
     ethr =  6.34E-07,  avg # of iterations =  2.5

     negative rho (up, down):  1.488E-03 1.775E-01

     total cpu time spent up to now is     6560.9 secs

     total energy              =    -951.86511779 Ry
     Harris-Foulkes estimate   =    -951.86679554 Ry
     estimated scf accuracy    <       0.04187853 Ry

     total magnetization       =     0.00 Bohr mag/cell
     absolute magnetization    =     0.30 Bohr mag/cell

     iteration # 57     ecut=    70.00 Ry     beta= 0.70
     Davidson diagonalization with overlap
     ethr =  6.34E-07,  avg # of iterations =  3.0

     negative rho (up, down):  1.406E-03 1.040E-01

     total cpu time spent up to now is     6698.0 secs

     total energy              =    -951.86602720 Ry
     Harris-Foulkes estimate   =    -951.86569540 Ry
     estimated scf accuracy    <       0.00280919 Ry

     total magnetization       =     0.00 Bohr mag/cell
     absolute magnetization    =     0.07 Bohr mag/cell

     iteration # 58     ecut=    70.00 Ry     beta= 0.70
     Davidson diagonalization with overlap
     ethr =  6.34E-07,  avg # of iterations =  2.5

     negative rho (up, down):  1.307E-03 7.347E-02

     total cpu time spent up to now is     6820.5 secs

     total energy              =    -951.86623317 Ry
     Harris-Foulkes estimate   =    -951.86609000 Ry
     estimated scf accuracy    <       0.00134354 Ry

     total magnetization       =     0.00 Bohr mag/cell
     absolute magnetization    =     0.06 Bohr mag/cell

     iteration # 59     ecut=    70.00 Ry     beta= 0.70
     Davidson diagonalization with overlap
     ethr =  6.22E-07,  avg # of iterations =  2.0

     negative rho (up, down):  1.285E-03 1.064E-01

     total cpu time spent up to now is     6939.7 secs

     total energy              =    -951.86610099 Ry
     Harris-Foulkes estimate   =    -951.86626990 Ry
     estimated scf accuracy    <       0.00503713 Ry

     total magnetization       =    -0.00 Bohr mag/cell
     absolute magnetization    =     0.11 Bohr mag/cell

     iteration # 60     ecut=    70.00 Ry     beta= 0.70
     Davidson diagonalization with overlap
     ethr =  6.22E-07,  avg # of iterations =  2.0

     negative rho (up, down):  1.267E-03 1.114E-01

     total cpu time spent up to now is     7064.7 secs

     total energy              =    -951.86618123 Ry
     Harris-Foulkes estimate   =    -951.86618046 Ry
     estimated scf accuracy    <       0.00401749 Ry

     total magnetization       =    -0.00 Bohr mag/cell
     absolute magnetization    =     0.10 Bohr mag/cell

     iteration # 61     ecut=    70.00 Ry     beta= 0.70
     Davidson diagonalization with overlap
     ethr =  6.22E-07,  avg # of iterations =  1.0

     negative rho (up, down):  1.245E-03 1.130E-01

     total cpu time spent up to now is     7184.5 secs

     total energy              =    -951.86601041 Ry
     Harris-Foulkes estimate   =    -951.86618308 Ry
     estimated scf accuracy    <       0.00310560 Ry

     total magnetization       =     0.00 Bohr mag/cell
     absolute magnetization    =     0.09 Bohr mag/cell

     iteration # 62     ecut=    70.00 Ry     beta= 0.70
     Davidson diagonalization with overlap
     ethr =  6.22E-07,  avg # of iterations =  2.0

     negative rho (up, down):  1.304E-03 3.338E-02

     total cpu time spent up to now is     7313.2 secs

     total energy              =    -951.86621011 Ry
     Harris-Foulkes estimate   =    -951.86615659 Ry
     estimated scf accuracy    <       0.00176688 Ry

     total magnetization       =    -0.00 Bohr mag/cell
     absolute magnetization    =     0.04 Bohr mag/cell

     iteration # 63     ecut=    70.00 Ry     beta= 0.70
     Davidson diagonalization with overlap
     ethr =  6.22E-07,  avg # of iterations =  3.0

     negative rho (up, down):  1.221E-03 2.113E-02

     total cpu time spent up to now is     7437.5 secs

     total energy              =    -951.86623180 Ry
     Harris-Foulkes estimate   =    -951.86629990 Ry
     estimated scf accuracy    <       0.00091272 Ry

     total magnetization       =     0.00 Bohr mag/cell
     absolute magnetization    =     0.03 Bohr mag/cell

     iteration # 64     ecut=    70.00 Ry     beta= 0.70
     Davidson diagonalization with overlap
     ethr =  4.23E-07,  avg # of iterations =  2.0

     negative rho (up, down):  1.249E-03 2.614E-02

     total cpu time spent up to now is     7548.6 secs

     total energy              =    -951.86624124 Ry
     Harris-Foulkes estimate   =    -951.86629416 Ry
     estimated scf accuracy    <       0.00042288 Ry

     total magnetization       =     0.00 Bohr mag/cell
     absolute magnetization    =     0.02 Bohr mag/cell

     iteration # 65     ecut=    70.00 Ry     beta= 0.70
     Davidson diagonalization with overlap
     ethr =  1.96E-07,  avg # of iterations =  2.0

     negative rho (up, down):  1.307E-03 3.051E-02

     total cpu time spent up to now is     7661.5 secs

     total energy              =    -951.86619743 Ry
     Harris-Foulkes estimate   =    -951.86628999 Ry
     estimated scf accuracy    <       0.00122246 Ry

     total magnetization       =     0.00 Bohr mag/cell
     absolute magnetization    =     0.04 Bohr mag/cell

     iteration # 66     ecut=    70.00 Ry     beta= 0.70
     Davidson diagonalization with overlap
     ethr =  1.96E-07,  avg # of iterations =  2.0

     negative rho (up, down):  1.225E-03 4.612E-02

     total cpu time spent up to now is     7767.3 secs

     total energy              =    -951.86626376 Ry
     Harris-Foulkes estimate   =    -951.86626622 Ry
     estimated scf accuracy    <       0.00149237 Ry

     total magnetization       =     0.00 Bohr mag/cell
     absolute magnetization    =     0.06 Bohr mag/cell

     iteration # 67     ecut=    70.00 Ry     beta= 0.70
     Davidson diagonalization with overlap
     ethr =  1.96E-07,  avg # of iterations =  2.0

     negative rho (up, down):  1.288E-03 5.075E-02

     total cpu time spent up to now is     7867.4 secs

     total energy              =    -951.86622546 Ry
     Harris-Foulkes estimate   =    -951.86628235 Ry
     estimated scf accuracy    <       0.00127718 Ry

     total magnetization       =    -0.00 Bohr mag/cell
     absolute magnetization    =     0.05 Bohr mag/cell

     iteration # 68     ecut=    70.00 Ry     beta= 0.70
     Davidson diagonalization with overlap
     ethr =  1.96E-07,  avg # of iterations =  1.5

     negative rho (up, down):  1.306E-03 5.273E-02

     total cpu time spent up to now is     7965.6 secs

     total energy              =    -951.86626726 Ry
     Harris-Foulkes estimate   =    -951.86625813 Ry
     estimated scf accuracy    <       0.00129579 Ry

     total magnetization       =     0.00 Bohr mag/cell
     absolute magnetization    =     0.05 Bohr mag/cell

     iteration # 69     ecut=    70.00 Ry     beta= 0.70
     Davidson diagonalization with overlap
     ethr =  1.96E-07,  avg # of iterations =  2.0

     negative rho (up, down):  1.323E-03 9.937E-02

     total cpu time spent up to now is     8069.1 secs

     total energy              =    -951.86606630 Ry
     Harris-Foulkes estimate   =    -951.86630443 Ry
     estimated scf accuracy    <       0.00519434 Ry

     total magnetization       =     0.00 Bohr mag/cell
     absolute magnetization    =     0.11 Bohr mag/cell

     iteration # 70     ecut=    70.00 Ry     beta= 0.70
     Davidson diagonalization with overlap
     ethr =  1.96E-07,  avg # of iterations =  2.0

     negative rho (up, down):  1.266E-03 8.192E-02

     total cpu time spent up to now is     8176.7 secs

     total energy              =    -951.86622051 Ry
     Harris-Foulkes estimate   =    -951.86613462 Ry
     estimated scf accuracy    <       0.00179338 Ry

     total magnetization       =     0.00 Bohr mag/cell
     absolute magnetization    =     0.06 Bohr mag/cell

     iteration # 71     ecut=    70.00 Ry     beta= 0.70
     Davidson diagonalization with overlap
     ethr =  1.96E-07,  avg # of iterations =  1.0

     negative rho (up, down):  1.241E-03 8.458E-02

     total cpu time spent up to now is     8274.2 secs

     total energy              =    -951.86614931 Ry
     Harris-Foulkes estimate   =    -951.86622088 Ry
     estimated scf accuracy    <       0.00181023 Ry

     total magnetization       =    -0.00 Bohr mag/cell
     absolute magnetization    =     0.06 Bohr mag/cell

     iteration # 72     ecut=    70.00 Ry     beta= 0.70
     Davidson diagonalization with overlap
     ethr =  1.96E-07,  avg # of iterations =  2.0

     negative rho (up, down):  1.220E-03 4.317E-02

     total cpu time spent up to now is     8378.0 secs

     total energy              =    -951.86625700 Ry
     Harris-Foulkes estimate   =    -951.86619778 Ry
     estimated scf accuracy    <       0.00057949 Ry

     total magnetization       =    -0.00 Bohr mag/cell
     absolute magnetization    =     0.03 Bohr mag/cell

     iteration # 73     ecut=    70.00 Ry     beta= 0.70
     Davidson diagonalization with overlap
     ethr =  1.96E-07,  avg # of iterations =  2.0

     negative rho (up, down):  1.267E-03 5.848E-02

     total cpu time spent up to now is     8480.8 secs

     total energy              =    -951.86623015 Ry
     Harris-Foulkes estimate   =    -951.86630426 Ry
     estimated scf accuracy    <       0.00202149 Ry

     total magnetization       =     0.00 Bohr mag/cell
     absolute magnetization    =     0.06 Bohr mag/cell

     iteration # 74     ecut=    70.00 Ry     beta= 0.70
     Davidson diagonalization with overlap
     ethr =  1.96E-07,  avg # of iterations =  2.0

     negative rho (up, down):  1.384E-03 8.173E-02

     total cpu time spent up to now is     8584.9 secs

     total energy              =    -951.86615262 Ry
     Harris-Foulkes estimate   =    -951.86630829 Ry
     estimated scf accuracy    <       0.00482403 Ry

     total magnetization       =    -0.00 Bohr mag/cell
     absolute magnetization    =     0.09 Bohr mag/cell

     iteration # 75     ecut=    70.00 Ry     beta= 0.70
     Davidson diagonalization with overlap
     ethr =  1.96E-07,  avg # of iterations =  3.0

     negative rho (up, down):  2.213E-03 1.153E-01

     total cpu time spent up to now is     8697.8 secs

     total energy              =    -951.86597709 Ry
     Harris-Foulkes estimate   =    -951.86649057 Ry
     estimated scf accuracy    <       0.02103232 Ry

     total magnetization       =    -0.00 Bohr mag/cell
     absolute magnetization    =     0.18 Bohr mag/cell

     iteration # 76     ecut=    70.00 Ry     beta= 0.70
     Davidson diagonalization with overlap
     ethr =  1.96E-07,  avg # of iterations =  3.5

     negative rho (up, down):  2.015E-03 1.601E-01

     total cpu time spent up to now is     8816.0 secs

     total energy              =    -951.86507428 Ry
     Harris-Foulkes estimate   =    -951.86631921 Ry
     estimated scf accuracy    <       0.03282937 Ry

     total magnetization       =    -0.00 Bohr mag/cell
     absolute magnetization    =     0.26 Bohr mag/cell

     iteration # 77     ecut=    70.00 Ry     beta= 0.70
     Davidson diagonalization with overlap
     ethr =  1.96E-07,  avg # of iterations =  3.0

     negative rho (up, down):  1.370E-03 1.096E-01

     total cpu time spent up to now is     8932.7 secs

     total energy              =    -951.86602013 Ry
     Harris-Foulkes estimate   =    -951.86550475 Ry
     estimated scf accuracy    <       0.00268408 Ry

     total magnetization       =     0.00 Bohr mag/cell
     absolute magnetization    =     0.08 Bohr mag/cell

     iteration # 78     ecut=    70.00 Ry     beta= 0.70
     Davidson diagonalization with overlap
     ethr =  1.96E-07,  avg # of iterations =  2.5

     negative rho (up, down):  1.261E-03 8.899E-02

     total cpu time spent up to now is     9033.9 secs

     total energy              =    -951.86613112 Ry
     Harris-Foulkes estimate   =    -951.86603720 Ry
     estimated scf accuracy    <       0.00245505 Ry

     total magnetization       =    -0.00 Bohr mag/cell
     absolute magnetization    =     0.08 Bohr mag/cell

     iteration # 79     ecut=    70.00 Ry     beta= 0.70
     Davidson diagonalization with overlap
     ethr =  1.96E-07,  avg # of iterations =  2.0

     negative rho (up, down):  1.241E-03 7.973E-02

     total cpu time spent up to now is     9131.6 secs

     total energy              =    -951.86615510 Ry
     Harris-Foulkes estimate   =    -951.86613731 Ry
     estimated scf accuracy    <       0.00173219 Ry

     total magnetization       =     0.00 Bohr mag/cell
     absolute magnetization    =     0.06 Bohr mag/cell

     iteration # 80     ecut=    70.00 Ry     beta= 0.70
     Davidson diagonalization with overlap
     ethr =  1.96E-07,  avg # of iterations =  2.0

     negative rho (up, down):  1.241E-03 6.286E-02

     total cpu time spent up to now is     9236.1 secs

     total energy              =    -951.86623606 Ry
     Harris-Foulkes estimate   =    -951.86620969 Ry
     estimated scf accuracy    <       0.00123153 Ry

     total magnetization       =    -0.00 Bohr mag/cell
     absolute magnetization    =     0.05 Bohr mag/cell

     iteration # 81     ecut=    70.00 Ry     beta= 0.70
     Davidson diagonalization with overlap
     ethr =  1.96E-07,  avg # of iterations =  2.0

     negative rho (up, down):  1.243E-03 6.064E-02

     total cpu time spent up to now is     9335.7 secs

     total energy              =    -951.86621104 Ry
     Harris-Foulkes estimate   =    -951.86627753 Ry
     estimated scf accuracy    <       0.00113075 Ry

     total magnetization       =     0.00 Bohr mag/cell
     absolute magnetization    =     0.04 Bohr mag/cell

     iteration # 82     ecut=    70.00 Ry     beta= 0.70
     Davidson diagonalization with overlap
     ethr =  1.96E-07,  avg # of iterations =  2.0

     negative rho (up, down):  1.224E-03 4.360E-02

     total cpu time spent up to now is     9435.1 secs

     total energy              =    -951.86626376 Ry
     Harris-Foulkes estimate   =    -951.86624224 Ry
     estimated scf accuracy    <       0.00027737 Ry

     total magnetization       =     0.00 Bohr mag/cell
     absolute magnetization    =     0.02 Bohr mag/cell

     iteration # 83     ecut=    70.00 Ry     beta= 0.70
     Davidson diagonalization with overlap
     ethr =  1.28E-07,  avg # of iterations =  2.0

     negative rho (up, down):  1.242E-03 3.698E-02

     total cpu time spent up to now is     9534.9 secs

     total energy              =    -951.86625887 Ry
     Harris-Foulkes estimate   =    -951.86627360 Ry
     estimated scf accuracy    <       0.00046436 Ry

     total magnetization       =    -0.00 Bohr mag/cell
     absolute magnetization    =     0.03 Bohr mag/cell

     iteration # 84     ecut=    70.00 Ry     beta= 0.70
     Davidson diagonalization with overlap
     ethr =  1.28E-07,  avg # of iterations =  2.0

     negative rho (up, down):  1.224E-03 2.930E-02

     total cpu time spent up to now is     9633.5 secs

     total energy              =    -951.86627773 Ry
     Harris-Foulkes estimate   =    -951.86626535 Ry
     estimated scf accuracy    <       0.00014052 Ry

     total magnetization       =     0.00 Bohr mag/cell
     absolute magnetization    =     0.02 Bohr mag/cell

     iteration # 85     ecut=    70.00 Ry     beta= 0.70
     Davidson diagonalization with overlap
     ethr =  6.51E-08,  avg # of iterations =  1.0

     negative rho (up, down):  1.217E-03 2.531E-02

     total cpu time spent up to now is     9730.7 secs

     total energy              =    -951.86628059 Ry
     Harris-Foulkes estimate   =    -951.86627813 Ry
     estimated scf accuracy    <       0.00010134 Ry

     total magnetization       =     0.00 Bohr mag/cell
     absolute magnetization    =     0.01 Bohr mag/cell

     iteration # 86     ecut=    70.00 Ry     beta= 0.70
     Davidson diagonalization with overlap
     ethr =  4.69E-08,  avg # of iterations =  1.0

     negative rho (up, down):  1.216E-03 1.995E-02

     total cpu time spent up to now is     9828.1 secs

     total energy              =    -951.86628350 Ry
     Harris-Foulkes estimate   =    -951.86628100 Ry
     estimated scf accuracy    <       0.00006027 Ry

     total magnetization       =    -0.00 Bohr mag/cell
     absolute magnetization    =     0.01 Bohr mag/cell

     iteration # 87     ecut=    70.00 Ry     beta= 0.70
     Davidson diagonalization with overlap
     ethr =  2.79E-08,  avg # of iterations =  1.5

     negative rho (up, down):  1.216E-03 1.990E-02

     total cpu time spent up to now is     9925.9 secs

     total energy              =    -951.86628184 Ry
     Harris-Foulkes estimate   =    -951.86628445 Ry
     estimated scf accuracy    <       0.00010104 Ry

     total magnetization       =     0.00 Bohr mag/cell
     absolute magnetization    =     0.02 Bohr mag/cell

     iteration # 88     ecut=    70.00 Ry     beta= 0.70
     Davidson diagonalization with overlap
     ethr =  2.79E-08,  avg # of iterations =  2.0

     negative rho (up, down):  1.216E-03 1.218E-02

     total cpu time spent up to now is    10024.0 secs

     total energy              =    -951.86628572 Ry
     Harris-Foulkes estimate   =    -951.86628284 Ry
     estimated scf accuracy    <       0.00001853 Ry

     total magnetization       =     0.00 Bohr mag/cell
     absolute magnetization    =     0.01 Bohr mag/cell

     iteration # 89     ecut=    70.00 Ry     beta= 0.70
     Davidson diagonalization with overlap
     ethr =  8.58E-09,  avg # of iterations =  2.5

     negative rho (up, down):  1.218E-03 3.332E-02

     total cpu time spent up to now is    10134.7 secs

     total energy              =    -951.86627442 Ry
     Harris-Foulkes estimate   =    -951.86629426 Ry
     estimated scf accuracy    <       0.00049194 Ry

     total magnetization       =    -0.00 Bohr mag/cell
     absolute magnetization    =     0.03 Bohr mag/cell

     iteration # 90     ecut=    70.00 Ry     beta= 0.70
     Davidson diagonalization with overlap
     ethr =  8.58E-09,  avg # of iterations =  2.0

     negative rho (up, down):  1.233E-03 2.666E-02

     total cpu time spent up to now is    10240.0 secs

     total energy              =    -951.86626497 Ry
     Harris-Foulkes estimate   =    -951.86627783 Ry
     estimated scf accuracy    <       0.00026005 Ry

     total magnetization       =    -0.00 Bohr mag/cell
     absolute magnetization    =     0.02 Bohr mag/cell

     iteration # 91     ecut=    70.00 Ry     beta= 0.70
     Davidson diagonalization with overlap
     ethr =  8.58E-09,  avg # of iterations =  2.0

     negative rho (up, down):  1.215E-03 9.525E-03

     total cpu time spent up to now is    10347.8 secs

     total energy              =    -951.86628512 Ry
     Harris-Foulkes estimate   =    -951.86627041 Ry
     estimated scf accuracy    <       0.00000600 Ry

     total magnetization       =    -0.00 Bohr mag/cell
     absolute magnetization    =     0.00 Bohr mag/cell

     iteration # 92     ecut=    70.00 Ry     beta= 0.70
     Davidson diagonalization with overlap
     ethr =  2.78E-09,  avg # of iterations =  2.0

     negative rho (up, down):  1.214E-03 3.772E-05

     Magnetic moment per site:
     atom:    1    charge:    0.2127    magn:   -0.0000    constr:    0.0000
     atom:    2    charge:    0.2127    magn:    0.0000    constr:    0.0000
     atom:    3    charge:    1.7155    magn:   -0.0000    constr:    0.0000
     atom:    4    charge:    1.7152    magn:    0.0000    constr:    0.0000
     atom:    5    charge:    1.7168    magn:   -0.0000    constr:    0.0000
     atom:    6    charge:    1.7146    magn:    0.0000    constr:    0.0000
     atom:    7    charge:    1.7169    magn:   -0.0000    constr:    0.0000
     atom:    8    charge:    1.7152    magn:    0.0000    constr:    0.0000
     atom:    9    charge:    1.7155    magn:   -0.0000    constr:    0.0000
     atom:   10    charge:    1.7177    magn:    0.0000    constr:    0.0000
     atom:   11    charge:    1.7155    magn:   -0.0000    constr:    0.0000
     atom:   12    charge:    1.7177    magn:    0.0000    constr:    0.0000
     atom:   13    charge:    1.7156    magn:   -0.0000    constr:    0.0000
     atom:   14    charge:    1.7175    magn:    0.0000    constr:    0.0000
     atom:   15    charge:    1.7118    magn:   -0.0000    constr:    0.0000
     atom:   16    charge:    1.7113    magn:    0.0000    constr:    0.0000
     atom:   17    charge:    1.7208    magn:   -0.0000    constr:    0.0000
     atom:   18    charge:    1.7114    magn:    0.0000    constr:    0.0000
     atom:   19    charge:    1.7118    magn:   -0.0000    constr:    0.0000
     atom:   20    charge:    1.7175    magn:    0.0000    constr:    0.0000
     atom:   21    charge:    1.7156    magn:   -0.0000    constr:    0.0000
     atom:   22    charge:    1.7176    magn:    0.0000    constr:    0.0000
     atom:   23    charge:    1.7155    magn:   -0.0000    constr:    0.0000
     atom:   24    charge:    1.7152    magn:    0.0000    constr:    0.0000
     atom:   25    charge:    1.7118    magn:   -0.0000    constr:    0.0000
     atom:   26    charge:    1.7112    magn:    0.0000    constr:    0.0000
     atom:   27    charge:    1.8195    magn:    0.0000    constr:    0.0000
     atom:   28    charge:   13.4072    magn:   -0.0000    constr:    0.0000
     atom:   29    charge:    1.8196    magn:   -0.0000    constr:    0.0000
     atom:   30    charge:    1.7112    magn:    0.0000    constr:    0.0000
     atom:   31    charge:    1.7119    magn:   -0.0000    constr:    0.0000
     atom:   32    charge:    1.7152    magn:    0.0000    constr:    0.0000
     atom:   33    charge:    1.7168    magn:   -0.0000    constr:    0.0000
     atom:   34    charge:    1.7154    magn:    0.0000    constr:    0.0000
     atom:   35    charge:    1.7168    magn:   -0.0000    constr:    0.0000
     atom:   36    charge:    1.7147    magn:    0.0000    constr:    0.0000
     atom:   37    charge:    1.7206    magn:   -0.0000    constr:    0.0000
     atom:   38    charge:    1.7119    magn:    0.0000    constr:    0.0000
     atom:   39    charge:    1.8212    magn:   -0.0000    constr:    0.0000
     atom:   40    charge:    1.7117    magn:    0.0000    constr:    0.0000
     atom:   41    charge:    1.7206    magn:   -0.0000    constr:    0.0000
     atom:   42    charge:    1.7146    magn:    0.0000    constr:    0.0000
     atom:   43    charge:    1.7168    magn:   -0.0000    constr:    0.0000
     atom:   44    charge:    1.7154    magn:    0.0000    constr:    0.0000
     atom:   45    charge:    1.7214    magn:   -0.0000    constr:    0.0000
     atom:   46    charge:    1.7154    magn:    0.0000    constr:    0.0000
     atom:   47    charge:    1.7168    magn:   -0.0000    constr:    0.0000
     atom:   48    charge:    1.7153    magn:    0.0000    constr:    0.0000
     atom:   49    charge:    1.7117    magn:   -0.0000    constr:    0.0000
     atom:   50    charge:    1.7176    magn:    0.0000    constr:    0.0000
     atom:   51    charge:    1.7117    magn:   -0.0000    constr:    0.0000
     atom:   52    charge:    1.7152    magn:    0.0000    constr:    0.0000

     total cpu time spent up to now is    10447.5 secs

     End of self-consistent calculation

 ------ SPIN UP ------------


          k = 0.0000 0.0000 0.0000 ( 87777 PWs)   bands (ev):

  -107.8619 -69.0413 -69.0252 -66.9451 -19.8148 -18.9964 -18.9937 -18.8781
   -18.8766 -18.7921 -18.7224 -17.1510 -17.1488 -17.1173 -17.0688 -17.0660
   -16.7411 -16.3000 -16.2989 -16.1543 -16.1535 -16.1407 -15.6577 -14.2968
   -14.2935 -14.1372 -14.0059 -14.0041 -13.5013 -13.1169 -13.1166 -13.0653
   -12.8885 -12.8874 -12.4886 -12.0592 -12.0584 -11.7002 -11.5564 -11.5555
   -10.9204 -10.4089 -10.4082  -9.5615  -9.3543  -9.3530  -9.2149  -9.1999
    -9.1998  -9.1850  -8.9389  -8.9376  -8.5779  -8.5770  -8.4371  -8.0648
    -7.8887  -7.8794  -7.8227  -7.6490  -7.5279  -7.5277  -7.4341  -7.4333
    -7.1970  -6.8316  -6.8125  -6.8112  -6.7371  -6.6084  -6.6056  -6.5437
    -6.5394  -6.5387  -6.5069  -6.4315  -6.4087  -6.3988  -6.2722  -6.2717
    -6.2012  -5.5343  -5.5328  -5.0184  -4.9379  -4.8293  -4.8283  -4.7486
    -4.7091  -4.7067  -4.3925  -4.3870  -4.3801  -3.8287  -3.8265  -3.7543
    -3.7466  -3.7465  -3.5446  -3.4054  -3.4021  -3.2250  -1.8825  -1.7967
    -1.7950  -1.5808  -1.5754  -1.1110   0.1269   0.1340   0.9131   0.9695
     0.9725   1.2182   1.2250   1.5698   2.5035   2.8050   2.8129   2.8629
     3.0307   3.0477   3.3828   3.5305   3.6278   3.7423   3.7467   3.7729
     3.9394   4.2474

     occupation numbers 
     1.0000   1.0000   1.0000   1.0000   1.0000   1.0000   1.0000   1.0000
     1.0000   1.0000   1.0000   1.0000   1.0000   1.0000   1.0000   1.0000
     1.0000   1.0000   1.0000   1.0000   1.0000   1.0000   1.0000   1.0000
     1.0000   1.0000   1.0000   1.0000   1.0000   1.0000   1.0000   1.0000
     1.0000   1.0000   1.0000   1.0000   1.0000   1.0000   1.0000   1.0000
     1.0000   1.0000   1.0000   1.0000   1.0000   1.0000   1.0000   1.0000
     1.0000   1.0000   1.0000   1.0000   1.0000   1.0000   1.0000   1.0000
     1.0000   1.0000   1.0000   1.0000   1.0000   1.0000   1.0000   1.0000
     1.0000   1.0000   1.0000   1.0000   1.0000   1.0000   1.0000   1.0000
     1.0000   1.0000   1.0000   1.0000   1.0000   1.0000   1.0000   1.0000
     1.0000   1.0000   1.0000   1.0000   1.0000   1.0000   1.0000   1.0000
     1.0000   1.0000   1.0000   1.0000   1.0000   1.0000   1.0000   1.0000
     1.0000   1.0000   1.0000   1.0000   1.0000   1.0000   1.0000   1.0000
     1.0000   1.0000   1.0000   1.0000   0.0000   0.0000   0.0000   0.0000
     0.0000   0.0000   0.0000   0.0000   0.0000   0.0000   0.0000   0.0000
     0.0000   0.0000   0.0000   0.0000   0.0000   0.0000   0.0000   0.0000
     0.0000   0.0000

 ------ SPIN DOWN ----------


          k = 0.0000 0.0000 0.0000 ( 87777 PWs)   bands (ev):

  -107.8619 -69.0414 -69.0252 -66.9452 -19.8148 -18.9964 -18.9937 -18.8781
   -18.8766 -18.7921 -18.7224 -17.1510 -17.1488 -17.1173 -17.0688 -17.0660
   -16.7411 -16.3000 -16.2989 -16.1543 -16.1535 -16.1407 -15.6577 -14.2968
   -14.2935 -14.1372 -14.0059 -14.0041 -13.5013 -13.1169 -13.1166 -13.0653
   -12.8885 -12.8874 -12.4886 -12.0592 -12.0584 -11.7002 -11.5564 -11.5555
   -10.9204 -10.4089 -10.4082  -9.5615  -9.3543  -9.3530  -9.2149  -9.1999
    -9.1998  -9.1850  -8.9389  -8.9376  -8.5779  -8.5770  -8.4371  -8.0648
    -7.8887  -7.8794  -7.8227  -7.6490  -7.5279  -7.5277  -7.4341  -7.4333
    -7.1970  -6.8316  -6.8125  -6.8112  -6.7371  -6.6084  -6.6056  -6.5437
    -6.5394  -6.5387  -6.5069  -6.4315  -6.4087  -6.3988  -6.2722  -6.2717
    -6.2012  -5.5343  -5.5328  -5.0184  -4.9379  -4.8293  -4.8283  -4.7486
    -4.7091  -4.7068  -4.3925  -4.3870  -4.3801  -3.8287  -3.8265  -3.7543
    -3.7466  -3.7465  -3.5445  -3.4054  -3.4020  -3.2250  -1.8825  -1.7967
    -1.7950  -1.5808  -1.5754  -1.1111   0.1269   0.1340   0.9131   0.9695
     0.9725   1.2182   1.2250   1.5698   2.5033   2.8050   2.8129   2.8629
     3.0307   3.0477   3.3827   3.5304   3.6276   3.7422   3.7464   3.7729
     3.9392   4.2472

     occupation numbers 
     1.0000   1.0000   1.0000   1.0000   1.0000   1.0000   1.0000   1.0000
     1.0000   1.0000   1.0000   1.0000   1.0000   1.0000   1.0000   1.0000
     1.0000   1.0000   1.0000   1.0000   1.0000   1.0000   1.0000   1.0000
     1.0000   1.0000   1.0000   1.0000   1.0000   1.0000   1.0000   1.0000
     1.0000   1.0000   1.0000   1.0000   1.0000   1.0000   1.0000   1.0000
     1.0000   1.0000   1.0000   1.0000   1.0000   1.0000   1.0000   1.0000
     1.0000   1.0000   1.0000   1.0000   1.0000   1.0000   1.0000   1.0000
     1.0000   1.0000   1.0000   1.0000   1.0000   1.0000   1.0000   1.0000
     1.0000   1.0000   1.0000   1.0000   1.0000   1.0000   1.0000   1.0000
     1.0000   1.0000   1.0000   1.0000   1.0000   1.0000   1.0000   1.0000
     1.0000   1.0000   1.0000   1.0000   1.0000   1.0000   1.0000   1.0000
     1.0000   1.0000   1.0000   1.0000   1.0000   1.0000   1.0000   1.0000
     1.0000   1.0000   1.0000   1.0000   1.0000   1.0000   1.0000   1.0000
     1.0000   1.0000   1.0000   1.0000   0.0000   0.0000   0.0000   0.0000
     0.0000   0.0000   0.0000   0.0000   0.0000   0.0000   0.0000   0.0000
     0.0000   0.0000   0.0000   0.0000   0.0000   0.0000   0.0000   0.0000
     0.0000   0.0000

     the Fermi energy is    -0.9831 ev

!    total energy              =    -951.86628678 Ry
     Harris-Foulkes estimate   =    -951.86628554 Ry
     estimated scf accuracy    <       0.00000067 Ry

     The total energy is the sum of the following terms:

     one-electron contribution =   -2995.52803171 Ry
     hartree contribution      =    1540.55028140 Ry
     xc contribution           =    -265.77218803 Ry
     ewald contribution        =     768.88365156 Ry
     smearing contrib. (-TS)   =       0.00000000 Ry

     total magnetization       =    -0.00 Bohr mag/cell
     absolute magnetization    =     0.00 Bohr mag/cell

     convergence has been achieved in  92 iterations

     Writing output data file cobre-bridge-distance-2.4.save/

     init_run     :     88.05s CPU     89.53s WALL (       1 calls)
     electrons    :  10185.07s CPU  10357.04s WALL (       1 calls)

     Called by init_run:
     wfcinit      :     55.74s CPU     56.16s WALL (       1 calls)
     wfcinit:atom :      0.09s CPU      0.13s WALL (       2 calls)
     wfcinit:wfcr :     55.24s CPU     55.54s WALL (       2 calls)
     potinit      :     13.17s CPU     13.64s WALL (       1 calls)
     hinit0       :      7.92s CPU      7.93s WALL (       1 calls)

     Called by electrons:
     c_bands      :   6534.98s CPU   6567.43s WALL (      92 calls)
     sum_band     :   2141.11s CPU   2198.46s WALL (      92 calls)
     v_of_rho     :    719.97s CPU    751.79s WALL (      93 calls)
     v_h          :      8.13s CPU      8.42s WALL (      93 calls)
     v_xc         :    711.84s CPU    743.37s WALL (      93 calls)
     newd         :    731.79s CPU    781.90s WALL (      93 calls)
     mix_rho      :     50.98s CPU     51.71s WALL (      92 calls)

     Called by c_bands:
     init_us_2    :     19.79s CPU     19.86s WALL (     370 calls)
     cegterg      :   6489.24s CPU   6521.45s WALL (     184 calls)

     Called by sum_band:
     sum_band:bec :      0.15s CPU      0.15s WALL (     184 calls)
     addusdens    :   1308.07s CPU   1361.15s WALL (      92 calls)

     Called by *egterg:
     h_psi        :   3434.85s CPU   3456.95s WALL (     647 calls)
     s_psi        :   1155.06s CPU   1155.50s WALL (     647 calls)
     g_psi        :      3.28s CPU      3.29s WALL (     461 calls)
     cdiaghg      :     43.07s CPU     43.09s WALL (     645 calls)
     cegterg:over :    757.77s CPU    758.05s WALL (     461 calls)
     cegterg:upda :    462.65s CPU    465.36s WALL (     461 calls)
     cegterg:last :    346.01s CPU    346.10s WALL (     184 calls)

     Called by h_psi:
     h_psi:pot    :   3431.26s CPU   3449.18s WALL (     647 calls)
     h_psi:calbec :   1147.62s CPU   1148.02s WALL (     647 calls)
     vloc_psi     :   1128.53s CPU   1145.79s WALL (     647 calls)
     add_vuspsi   :   1155.10s CPU   1155.36s WALL (     647 calls)

     General routines
     calbec       :   1658.43s CPU   1659.01s WALL (     831 calls)
     fft          :    422.31s CPU    435.56s WALL (    6969 calls)
     ffts         :      7.75s CPU      7.98s WALL (     370 calls)
     fftw         :   1204.75s CPU   1223.23s WALL (  131270 calls)
     interpolate  :     18.23s CPU     18.64s WALL (     186 calls)

     Parallel routines
     fft_scatt_xy :    321.93s CPU    325.14s WALL (  138609 calls)
     fft_scatt_yz :    504.86s CPU    528.63s WALL (  138609 calls)

     PWSCF        :      2h51m CPU      2h54m WALL


   This run was terminated on:  23: 3:55  12Jan2023            

=------------------------------------------------------------------------------=
   JOB DONE.
=------------------------------------------------------------------------------=
