
     Program PWSCF v.6.4.1 starts on 13Jan2023 at  1:30:44 

     This program is part of the open-source Quantum ESPRESSO suite
     for quantum simulation of materials; please cite
         "P. Giannozzi et al., J. Phys.:Condens. Matter 21 395502 (2009);
         "P. Giannozzi et al., J. Phys.:Condens. Matter 29 465901 (2017);
          URL http://www.quantum-espresso.org", 
     in publications or presentations arising from this work. More details at
     http://www.quantum-espresso.org/quote

     Parallel version (MPI), running on     6 processors

     MPI processes distributed on     1 nodes
     R & G space division:  proc/nbgrp/npool/nimage =       6
     Reading input from distance-2.0.in

     Current dimensions of program PWSCF are:
     Max number of different atomic species (ntypx) = 10
     Max number of k-points (npk) =  40000
     Max angular momentum in pseudopotentials (lmaxx) =  3

     IMPORTANT: XC functional enforced from input :
     Exchange-correlation      = RVV10 ( 1  4 13  4 3 0)
     Any further DFT definition will be discarded
     Please, verify this is what you really want

               file H.pbe-rrkjus.UPF: wavefunction(s)  1S renormalized

     Subspace diagonalization in iterative solution of the eigenvalue problem:
     a serial algorithm will be used


     Parallelization info
     --------------------
     sticks:   dense  smooth     PW     G-vecs:    dense   smooth      PW
     Min        3051    1746    432               270999   117096   14629
     Max        3053    1747    437               271001   117099   14630
     Sum       18313   10477   2611              1626001   702581   87777



     bravais-lattice index     =            4
     lattice parameter (alat)  =      23.2937  a.u.
     unit-cell volume          =    8879.8548 (a.u.)^3
     number of atoms/cell      =           52
     number of atomic types    =            3
     number of electrons       =       216.00
     number of Kohn-Sham states=          130
     kinetic-energy cutoff     =      70.0000  Ry
     charge density cutoff     =     490.0000  Ry
     convergence threshold     =      1.0E-06
     mixing beta               =       0.7000
     number of iterations used =            8  plain     mixing
     Exchange-correlation      = RVV10 ( 1  4 13  4 3 0)

     celldm(1)=  23.293684  celldm(2)=   0.000000  celldm(3)=   0.811261
     celldm(4)=   0.000000  celldm(5)=   0.000000  celldm(6)=   0.000000

     crystal axes: (cart. coord. in units of alat)
               a(1) = (   1.000000   0.000000   0.000000 )  
               a(2) = (  -0.500000   0.866025   0.000000 )  
               a(3) = (   0.000000   0.000000   0.811261 )  

     reciprocal axes: (cart. coord. in units 2 pi/alat)
               b(1) = (  1.000000  0.577350 -0.000000 )  
               b(2) = (  0.000000  1.154701  0.000000 )  
               b(3) = (  0.000000 -0.000000  1.232649 )  


     PseudoPot. # 1 for H  read from file:
     /home/cristian/Escritorio/Proyecto_Grafeno/pseudopotenciales/H.pbe-rrkjus.UPF
     MD5 check sum: 7cc9d459525c9a0585f487a71c3c9563
     Pseudo is Ultrasoft, Zval =  1.0
     Generated by new atomic code, or converted to UPF format
     Using radial grid of 1061 points,  2 beta functions with: 
                l(1) =   0
                l(2) =   0
     Q(r) pseudized with 0 coefficients 


     PseudoPot. # 2 for C  read from file:
     /home/cristian/Escritorio/Proyecto_Grafeno/pseudopotenciales/C.pbe-n-rrkjus_psl.1.0.0.UPF
     MD5 check sum: 1fdd950c42eb37d8afe3dd2f8d12311e
     Pseudo is Ultrasoft + core correction, Zval =  4.0
     Generated using "atomic" code by A. Dal Corso v.6.3MaX
     Using radial grid of 1073 points,  4 beta functions with: 
                l(1) =   0
                l(2) =   0
                l(3) =   1
                l(4) =   1
     Q(r) pseudized with 0 coefficients 


     PseudoPot. # 3 for Ni read from file:
     /home/cristian/Escritorio/Proyecto_Grafeno/pseudopotenciales/Ni.pbe-spn-rrkjus_psl.1.0.0.UPF
     MD5 check sum: 8b3fc9aac6dafe35f580d41bb18c3945
     Pseudo is Ultrasoft + core correction, Zval = 18.0
     Generated using "atomic" code by A. Dal Corso v.6.3
     Using radial grid of 1195 points,  6 beta functions with: 
                l(1) =   0
                l(2) =   0
                l(3) =   1
                l(4) =   1
                l(5) =   2
                l(6) =   2
     Q(r) pseudized with 0 coefficients 


     vdW kernel table read from file rVV10_kernel_table
     MD5 check sum: b8e2538accc0c0b3206b45ba4daaba6c

     atomic species   valence    mass     pseudopotential
        H              1.00     1.00794     H ( 1.00)
        C              4.00    12.01070     C ( 1.00)
        Ni            18.00    58.69340     Ni( 1.00)

     Starting magnetic structure 
     atomic species   magnetization
        H            0.500
        C            0.300
        Ni           0.800

     No symmetry found


                                    s                        frac. trans.

      isym =  1     identity                                     

 cryst.   s( 1) = (     1          0          0      )
                  (     0          1          0      )
                  (     0          0          1      )

 cart.    s( 1) = (  1.0000000  0.0000000  0.0000000 )
                  (  0.0000000  1.0000000  0.0000000 )
                  (  0.0000000  0.0000000  1.0000000 )


     point group C_1 (1)    
     there are  1 classes
     the character table:

       E    
A      1.00

     the symmetry operations in each class and the name of the first element:

     E        1
          identity                                               

   Cartesian axes

     site n.     atom                  positions (alat units)
         1           H   tau(   1) = (   0.2194937   0.4907477   0.1622522  )
         2           H   tau(   2) = (   0.2805063   0.4907477   0.1622522  )
         3           C   tau(   3) = (   0.0000000   0.0000000   0.0000000  )
         4           C   tau(   4) = (   0.0000000   0.1154701   0.0000000  )
         5           C   tau(   5) = (  -0.1000000   0.1732051   0.0000000  )
         6           C   tau(   6) = (  -0.1000000   0.2886751   0.0000000  )
         7           C   tau(   7) = (  -0.2000000   0.3464102   0.0000000  )
         8           C   tau(   8) = (  -0.2000000   0.4618802   0.0000000  )
         9           C   tau(   9) = (  -0.3000000   0.5196152   0.0000000  )
        10           C   tau(  10) = (  -0.3000000   0.6350853   0.0000000  )
        11           C   tau(  11) = (  -0.4000000   0.6928203   0.0000000  )
        12           C   tau(  12) = (  -0.4000000   0.8082904   0.0000000  )
        13           C   tau(  13) = (   0.2000000   0.0000000   0.0000000  )
        14           C   tau(  14) = (   0.2000000   0.1154701   0.0000000  )
        15           C   tau(  15) = (   0.1000000   0.1732051   0.0000000  )
        16           C   tau(  16) = (   0.1000000   0.2886751   0.0000000  )
        17           C   tau(  17) = (   0.0000000   0.3464102   0.0000000  )
        18           C   tau(  18) = (   0.0000000   0.4618802   0.0000000  )
        19           C   tau(  19) = (  -0.1000000   0.5196152   0.0000000  )
        20           C   tau(  20) = (  -0.1000000   0.6350853   0.0000000  )
        21           C   tau(  21) = (  -0.2000000   0.6928203   0.0000000  )
        22           C   tau(  22) = (  -0.2000000   0.8082904   0.0000000  )
        23           C   tau(  23) = (   0.4000000   0.0000000   0.0000000  )
        24           C   tau(  24) = (   0.4000000   0.1154701   0.0000000  )
        25           C   tau(  25) = (   0.3000000   0.1732051   0.0000000  )
        26           C   tau(  26) = (   0.3000000   0.2886751   0.0000000  )
        27           C   tau(  27) = (   0.2000000   0.3464102   0.0000000  )
        28           Ni  tau(  28) = (   0.2000000   0.4618802   0.0000000  )
        29           C   tau(  29) = (   0.1000000   0.5196152   0.0000000  )
        30           C   tau(  30) = (   0.1000000   0.6350853   0.0000000  )
        31           C   tau(  31) = (   0.0000000   0.6928203   0.0000000  )
        32           C   tau(  32) = (   0.0000000   0.8082904   0.0000000  )
        33           C   tau(  33) = (   0.6000000   0.0000000   0.0000000  )
        34           C   tau(  34) = (   0.6000000   0.1154701   0.0000000  )
        35           C   tau(  35) = (   0.5000000   0.1732051   0.0000000  )
        36           C   tau(  36) = (   0.5000000   0.2886751   0.0000000  )
        37           C   tau(  37) = (   0.4000000   0.3464102   0.0000000  )
        38           C   tau(  38) = (   0.4000000   0.4618802   0.0000000  )
        39           C   tau(  39) = (   0.3000000   0.5196152   0.0000000  )
        40           C   tau(  40) = (   0.3000000   0.6350853   0.0000000  )
        41           C   tau(  41) = (   0.2000000   0.6928203   0.0000000  )
        42           C   tau(  42) = (   0.2000000   0.8082904   0.0000000  )
        43           C   tau(  43) = (   0.8000000   0.0000000   0.0000000  )
        44           C   tau(  44) = (   0.8000000   0.1154701   0.0000000  )
        45           C   tau(  45) = (   0.7000000   0.1732051   0.0000000  )
        46           C   tau(  46) = (   0.7000000   0.2886751   0.0000000  )
        47           C   tau(  47) = (   0.6000000   0.3464102   0.0000000  )
        48           C   tau(  48) = (   0.6000000   0.4618802   0.0000000  )
        49           C   tau(  49) = (   0.5000000   0.5196152   0.0000000  )
        50           C   tau(  50) = (   0.5000000   0.6350853   0.0000000  )
        51           C   tau(  51) = (   0.4000000   0.6928203   0.0000000  )
        52           C   tau(  52) = (   0.4000000   0.8082904   0.0000000  )

   Crystallographic axes

     site n.     atom                  positions (cryst. coord.)
         1           H   tau(   1) = (  0.5028270  0.5666667  0.2000000  )
         2           H   tau(   2) = (  0.5638397  0.5666667  0.2000000  )
         3           C   tau(   3) = (  0.0000000  0.0000000  0.0000000  )
         4           C   tau(   4) = (  0.0666667  0.1333333  0.0000000  )
         5           C   tau(   5) = (  0.0000000  0.2000000  0.0000000  )
         6           C   tau(   6) = (  0.0666667  0.3333333  0.0000000  )
         7           C   tau(   7) = (  0.0000000  0.4000000  0.0000000  )
         8           C   tau(   8) = (  0.0666667  0.5333333  0.0000000  )
         9           C   tau(   9) = (  0.0000000  0.6000000  0.0000000  )
        10           C   tau(  10) = (  0.0666667  0.7333333  0.0000000  )
        11           C   tau(  11) = (  0.0000000  0.8000000  0.0000000  )
        12           C   tau(  12) = (  0.0666667  0.9333333  0.0000000  )
        13           C   tau(  13) = (  0.2000000  0.0000000  0.0000000  )
        14           C   tau(  14) = (  0.2666667  0.1333333  0.0000000  )
        15           C   tau(  15) = (  0.2000000  0.2000000  0.0000000  )
        16           C   tau(  16) = (  0.2666667  0.3333333  0.0000000  )
        17           C   tau(  17) = (  0.2000000  0.4000000  0.0000000  )
        18           C   tau(  18) = (  0.2666667  0.5333333  0.0000000  )
        19           C   tau(  19) = (  0.2000000  0.6000000  0.0000000  )
        20           C   tau(  20) = (  0.2666667  0.7333333  0.0000000  )
        21           C   tau(  21) = (  0.2000000  0.8000000  0.0000000  )
        22           C   tau(  22) = (  0.2666667  0.9333333  0.0000000  )
        23           C   tau(  23) = (  0.4000000  0.0000000  0.0000000  )
        24           C   tau(  24) = (  0.4666667  0.1333333  0.0000000  )
        25           C   tau(  25) = (  0.4000000  0.2000000  0.0000000  )
        26           C   tau(  26) = (  0.4666667  0.3333333  0.0000000  )
        27           C   tau(  27) = (  0.4000000  0.4000000  0.0000000  )
        28           Ni  tau(  28) = (  0.4666667  0.5333333  0.0000000  )
        29           C   tau(  29) = (  0.4000000  0.6000000  0.0000000  )
        30           C   tau(  30) = (  0.4666667  0.7333333  0.0000000  )
        31           C   tau(  31) = (  0.4000000  0.8000000  0.0000000  )
        32           C   tau(  32) = (  0.4666667  0.9333333  0.0000000  )
        33           C   tau(  33) = (  0.6000000  0.0000000  0.0000000  )
        34           C   tau(  34) = (  0.6666667  0.1333333  0.0000000  )
        35           C   tau(  35) = (  0.6000000  0.2000000  0.0000000  )
        36           C   tau(  36) = (  0.6666667  0.3333333  0.0000000  )
        37           C   tau(  37) = (  0.6000000  0.4000000  0.0000000  )
        38           C   tau(  38) = (  0.6666667  0.5333333  0.0000000  )
        39           C   tau(  39) = (  0.6000000  0.6000000  0.0000000  )
        40           C   tau(  40) = (  0.6666667  0.7333333  0.0000000  )
        41           C   tau(  41) = (  0.6000000  0.8000000  0.0000000  )
        42           C   tau(  42) = (  0.6666667  0.9333333  0.0000000  )
        43           C   tau(  43) = (  0.8000000  0.0000000  0.0000000  )
        44           C   tau(  44) = (  0.8666667  0.1333333  0.0000000  )
        45           C   tau(  45) = (  0.8000000  0.2000000  0.0000000  )
        46           C   tau(  46) = (  0.8666667  0.3333333  0.0000000  )
        47           C   tau(  47) = (  0.8000000  0.4000000  0.0000000  )
        48           C   tau(  48) = (  0.8666667  0.5333333  0.0000000  )
        49           C   tau(  49) = (  0.8000000  0.6000000  0.0000000  )
        50           C   tau(  50) = (  0.8666667  0.7333333  0.0000000  )
        51           C   tau(  51) = (  0.8000000  0.8000000  0.0000000  )
        52           C   tau(  52) = (  0.8666667  0.9333333  0.0000000  )

     number of k points=     1  Marzari-Vanderbilt smearing, width (Ry)=  0.0010
                       cart. coord. in units 2pi/alat
        k(    1) = (   0.0000000   0.0000000   0.0000000), wk =   1.0000000

                       cryst. coord.
        k(    1) = (   0.0000000   0.0000000   0.0000000), wk =   1.0000000

     Dense  grid:  1626001 G-vectors     FFT dimensions: ( 180, 180, 135)

     Smooth grid:   702581 G-vectors     FFT dimensions: ( 125, 125, 108)

     Dynamical RAM for                 wfc:      29.03 MB

     Dynamical RAM for     wfc (w. buffer):      87.10 MB

     Dynamical RAM for           str. fact:      12.41 MB

     Dynamical RAM for           local pot:       0.00 MB

     Dynamical RAM for          nlocal pot:      92.46 MB

     Dynamical RAM for                qrad:      19.73 MB

     Dynamical RAM for          rho,v,vnew:      58.92 MB

     Dynamical RAM for               rhoin:      19.64 MB

     Dynamical RAM for            rho*nmix:     132.32 MB

     Dynamical RAM for           G-vectors:      16.40 MB

     Dynamical RAM for          h,s,v(r/c):      12.38 MB

     Dynamical RAM for          <psi|beta>:       0.82 MB

     Dynamical RAM for                 psi:     116.14 MB

     Dynamical RAM for                hpsi:     116.14 MB

     Dynamical RAM for                spsi:     116.14 MB

     Dynamical RAM for      wfcinit/wfcrot:      93.90 MB

     Dynamical RAM for           addusdens:     975.89 MB

     Estimated static dynamical RAM per process >     489.64 MB

     Estimated max dynamical RAM per process >       1.43 GB

     Estimated total dynamical RAM >       8.59 GB
     Generating pointlists ...
     new r_m :   0.0252 (alat units)  0.5862 (a.u.) for type    1
     new r_m :   0.0476 (alat units)  1.1095 (a.u.) for type    2
     new r_m :   0.0476 (alat units)  1.1095 (a.u.) for type    3

     Check: negative core charge=   -0.000002

     Initial potential from superposition of free atoms

     starting charge  215.80530, renormalised to  216.00000

     negative rho (up, down):  1.795E-04 1.985E-02


---------------------------------------------------------------------------------
Carrying out rVV10 run using the following parameters:
Nqs =      20    Nr_points =    1024   r_max =   100.000
b_value =  6.30000    beta =  0.00901
     q_mesh =  0.00010000  0.00030000  0.00058939  0.00100810
               0.00161396  0.00249058  0.00375900  0.00559430
               0.00824984  0.01209221  0.01765183  0.02569619
               0.03733578  0.05417739  0.07854596  0.11380545
               0.16482331  0.23864234  0.34545298  0.50000000

Gradients computed in Reciprocal space

---------------------------------------------------------------------------------


     Starting wfcs are  208 randomized atomic wfcs

     total cpu time spent up to now is       79.9 secs

     Self-consistent Calculation

     iteration #  1     ecut=    70.00 Ry     beta= 0.70
     Davidson diagonalization with overlap
     ethr =  1.00E-02,  avg # of iterations =  7.0

     negative rho (up, down):  3.563E-04 1.706E-02

     total cpu time spent up to now is      220.7 secs

     total energy              =    -946.93815488 Ry
     Harris-Foulkes estimate   =    -949.62862695 Ry
     estimated scf accuracy    <      13.95746451 Ry

     total magnetization       =     6.00 Bohr mag/cell
     absolute magnetization    =     6.73 Bohr mag/cell

     iteration #  2     ecut=    70.00 Ry     beta= 0.70
     Davidson diagonalization with overlap
     ethr =  6.46E-03,  avg # of iterations =  3.5

     negative rho (up, down):  1.333E-02 3.288E-01

     total cpu time spent up to now is      342.5 secs

     total energy              =    -951.57038231 Ry
     Harris-Foulkes estimate   =    -955.78197177 Ry
     estimated scf accuracy    <      37.03858288 Ry

     total magnetization       =     4.00 Bohr mag/cell
     absolute magnetization    =     9.09 Bohr mag/cell

     iteration #  3     ecut=    70.00 Ry     beta= 0.70
     Davidson diagonalization with overlap
     ethr =  6.46E-03,  avg # of iterations =  3.0

     negative rho (up, down):  1.756E-02 5.477E-01

     total cpu time spent up to now is      455.0 secs

     total energy              =    -948.11165802 Ry
     Harris-Foulkes estimate   =    -964.26081904 Ry
     estimated scf accuracy    <     700.85493325 Ry

     total magnetization       =     0.00 Bohr mag/cell
     absolute magnetization    =    39.17 Bohr mag/cell

     iteration #  4     ecut=    70.00 Ry     beta= 0.70
     Davidson diagonalization with overlap
     ethr =  6.46E-03,  avg # of iterations =  3.5

     negative rho (up, down):  7.782E-03 5.086E-01

     total cpu time spent up to now is      566.3 secs

     total energy              =    -947.41272047 Ry
     Harris-Foulkes estimate   =    -953.27296697 Ry
     estimated scf accuracy    <     100.51040246 Ry

     total magnetization       =     0.00 Bohr mag/cell
     absolute magnetization    =    15.34 Bohr mag/cell

     iteration #  5     ecut=    70.00 Ry     beta= 0.70
     Davidson diagonalization with overlap
     ethr =  6.46E-03,  avg # of iterations =  3.5

     negative rho (up, down):  1.049E-01 4.435E-01

     total cpu time spent up to now is      696.9 secs

     total energy              =    -952.45976584 Ry
     Harris-Foulkes estimate   =    -956.87833418 Ry
     estimated scf accuracy    <     341.52305195 Ry

     total magnetization       =     2.00 Bohr mag/cell
     absolute magnetization    =    28.84 Bohr mag/cell

     iteration #  6     ecut=    70.00 Ry     beta= 0.70
     Davidson diagonalization with overlap
     ethr =  6.46E-03,  avg # of iterations =  2.0

     negative rho (up, down):  9.578E-02 4.627E-01

     total cpu time spent up to now is      802.4 secs

     total energy              =    -948.28872002 Ry
     Harris-Foulkes estimate   =    -953.87664064 Ry
     estimated scf accuracy    <     170.92400070 Ry

     total magnetization       =     2.00 Bohr mag/cell
     absolute magnetization    =    20.66 Bohr mag/cell

     iteration #  7     ecut=    70.00 Ry     beta= 0.70
     Davidson diagonalization with overlap
     ethr =  6.46E-03,  avg # of iterations =  2.0

     negative rho (up, down):  5.882E-02 3.792E-01

     total cpu time spent up to now is      912.3 secs

     total energy              =    -953.11058668 Ry
     Harris-Foulkes estimate   =    -951.93707654 Ry
     estimated scf accuracy    <      28.64924636 Ry

     total magnetization       =     2.00 Bohr mag/cell
     absolute magnetization    =     8.40 Bohr mag/cell

     iteration #  8     ecut=    70.00 Ry     beta= 0.70
     Davidson diagonalization with overlap
     ethr =  6.46E-03,  avg # of iterations =  2.0

     negative rho (up, down):  2.718E-02 4.810E-01

     total cpu time spent up to now is     1013.5 secs

     total energy              =    -948.70675540 Ry
     Harris-Foulkes estimate   =    -954.10100668 Ry
     estimated scf accuracy    <     157.51663602 Ry

     total magnetization       =     2.00 Bohr mag/cell
     absolute magnetization    =    19.76 Bohr mag/cell

     iteration #  9     ecut=    70.00 Ry     beta= 0.70
     Davidson diagonalization with overlap
     ethr =  6.46E-03,  avg # of iterations =  2.5

     negative rho (up, down):  2.496E-02 3.566E-01

     total cpu time spent up to now is     1121.1 secs

     total energy              =    -951.53094801 Ry
     Harris-Foulkes estimate   =    -951.66218621 Ry
     estimated scf accuracy    <      11.14194543 Ry

     total magnetization       =    -0.00 Bohr mag/cell
     absolute magnetization    =     4.87 Bohr mag/cell

     iteration # 10     ecut=    70.00 Ry     beta= 0.70
     Davidson diagonalization with overlap
     ethr =  5.16E-03,  avg # of iterations =  1.5

     negative rho (up, down):  4.347E-02 2.279E-01

     total cpu time spent up to now is     1218.9 secs

     total energy              =    -951.60644623 Ry
     Harris-Foulkes estimate   =    -951.89548648 Ry
     estimated scf accuracy    <       4.60460603 Ry

     total magnetization       =     0.00 Bohr mag/cell
     absolute magnetization    =     1.87 Bohr mag/cell

     iteration # 11     ecut=    70.00 Ry     beta= 0.70
     Davidson diagonalization with overlap
     ethr =  2.13E-03,  avg # of iterations =  2.0

     negative rho (up, down):  1.850E-02 1.638E-01

     total cpu time spent up to now is     1318.2 secs

     total energy              =    -951.75014013 Ry
     Harris-Foulkes estimate   =    -951.84879356 Ry
     estimated scf accuracy    <       2.22469853 Ry

     total magnetization       =    -0.00 Bohr mag/cell
     absolute magnetization    =     1.71 Bohr mag/cell

     iteration # 12     ecut=    70.00 Ry     beta= 0.70
     Davidson diagonalization with overlap
     ethr =  1.03E-03,  avg # of iterations =  2.0

     negative rho (up, down):  1.343E-02 2.793E-01

     total cpu time spent up to now is     1416.2 secs

     total energy              =    -951.76569938 Ry
     Harris-Foulkes estimate   =    -951.84324409 Ry
     estimated scf accuracy    <       1.36736725 Ry

     total magnetization       =    -0.00 Bohr mag/cell
     absolute magnetization    =     1.47 Bohr mag/cell

     iteration # 13     ecut=    70.00 Ry     beta= 0.70
     Davidson diagonalization with overlap
     ethr =  6.33E-04,  avg # of iterations =  1.5

     negative rho (up, down):  1.098E-02 1.773E-01

     total cpu time spent up to now is     1514.3 secs

     total energy              =    -951.76664257 Ry
     Harris-Foulkes estimate   =    -951.82307279 Ry
     estimated scf accuracy    <       0.53908659 Ry

     total magnetization       =    -0.00 Bohr mag/cell
     absolute magnetization    =     0.60 Bohr mag/cell

     iteration # 14     ecut=    70.00 Ry     beta= 0.70
     Davidson diagonalization with overlap
     ethr =  2.50E-04,  avg # of iterations =  9.0

     negative rho (up, down):  2.210E-03 2.409E-01

     total cpu time spent up to now is     1618.9 secs

     total energy              =    -951.78938548 Ry
     Harris-Foulkes estimate   =    -951.82403399 Ry
     estimated scf accuracy    <       0.18840628 Ry

     total magnetization       =     0.00 Bohr mag/cell
     absolute magnetization    =     0.49 Bohr mag/cell

     iteration # 15     ecut=    70.00 Ry     beta= 0.70
     Davidson diagonalization with overlap
     ethr =  8.72E-05,  avg # of iterations =  2.0

     negative rho (up, down):  1.647E-02 2.467E-01

     total cpu time spent up to now is     1726.9 secs

     total energy              =    -951.80831466 Ry
     Harris-Foulkes estimate   =    -951.83594638 Ry
     estimated scf accuracy    <       1.57975272 Ry

     total magnetization       =    -0.00 Bohr mag/cell
     absolute magnetization    =     1.77 Bohr mag/cell

     iteration # 16     ecut=    70.00 Ry     beta= 0.70
     Davidson diagonalization with overlap
     ethr =  8.72E-05,  avg # of iterations =  2.5

     negative rho (up, down):  1.773E-02 2.449E-01

     total cpu time spent up to now is     1826.5 secs

     total energy              =    -951.80508786 Ry
     Harris-Foulkes estimate   =    -951.81392638 Ry
     estimated scf accuracy    <       0.68923504 Ry

     total magnetization       =    -0.00 Bohr mag/cell
     absolute magnetization    =     1.17 Bohr mag/cell

     iteration # 17     ecut=    70.00 Ry     beta= 0.70
     Davidson diagonalization with overlap
     ethr =  8.72E-05,  avg # of iterations =  2.0

     negative rho (up, down):  1.019E-02 2.849E-01

     total cpu time spent up to now is     1924.1 secs

     total energy              =    -951.81168585 Ry
     Harris-Foulkes estimate   =    -951.81219074 Ry
     estimated scf accuracy    <       0.51486951 Ry

     total magnetization       =     0.00 Bohr mag/cell
     absolute magnetization    =     1.09 Bohr mag/cell

     iteration # 18     ecut=    70.00 Ry     beta= 0.70
     Davidson diagonalization with overlap
     ethr =  8.72E-05,  avg # of iterations =  1.5

     negative rho (up, down):  1.203E-02 3.178E-01

     total cpu time spent up to now is     2020.9 secs

     total energy              =    -951.82851480 Ry
     Harris-Foulkes estimate   =    -951.81563086 Ry
     estimated scf accuracy    <       0.69514437 Ry

     total magnetization       =     0.00 Bohr mag/cell
     absolute magnetization    =     1.26 Bohr mag/cell

     iteration # 19     ecut=    70.00 Ry     beta= 0.70
     Davidson diagonalization with overlap
     ethr =  8.72E-05,  avg # of iterations =  2.0

     negative rho (up, down):  1.516E-02 3.528E-01

     total cpu time spent up to now is     2126.2 secs

     total energy              =    -951.74594081 Ry
     Harris-Foulkes estimate   =    -951.85916305 Ry
     estimated scf accuracy    <       3.18799828 Ry

     total magnetization       =     0.00 Bohr mag/cell
     absolute magnetization    =     2.68 Bohr mag/cell

     iteration # 20     ecut=    70.00 Ry     beta= 0.70
     Davidson diagonalization with overlap
     ethr =  8.72E-05,  avg # of iterations =  2.0

     negative rho (up, down):  8.608E-03 2.737E-01

     total cpu time spent up to now is     2231.2 secs

     total energy              =    -951.80496429 Ry
     Harris-Foulkes estimate   =    -951.79564205 Ry
     estimated scf accuracy    <       0.12073602 Ry

     total magnetization       =    -0.00 Bohr mag/cell
     absolute magnetization    =     0.51 Bohr mag/cell

     iteration # 21     ecut=    70.00 Ry     beta= 0.70
     Davidson diagonalization with overlap
     ethr =  5.59E-05,  avg # of iterations =  2.0

     negative rho (up, down):  2.333E-03 1.926E-01

     total cpu time spent up to now is     2328.9 secs

     total energy              =    -951.81078513 Ry
     Harris-Foulkes estimate   =    -951.80786926 Ry
     estimated scf accuracy    <       0.01774875 Ry

     total magnetization       =     0.00 Bohr mag/cell
     absolute magnetization    =     0.24 Bohr mag/cell

     iteration # 22     ecut=    70.00 Ry     beta= 0.70
     Davidson diagonalization with overlap
     ethr =  8.22E-06,  avg # of iterations =  4.0

     negative rho (up, down):  2.607E-03 1.517E-01

     total cpu time spent up to now is     2435.4 secs

     total energy              =    -951.81118256 Ry
     Harris-Foulkes estimate   =    -951.81164777 Ry
     estimated scf accuracy    <       0.02265997 Ry

     total magnetization       =     0.14 Bohr mag/cell
     absolute magnetization    =     0.33 Bohr mag/cell

     iteration # 23     ecut=    70.00 Ry     beta= 0.70
     Davidson diagonalization with overlap
     ethr =  8.22E-06,  avg # of iterations =  1.5

     negative rho (up, down):  2.406E-03 1.054E-01

     total cpu time spent up to now is     2532.0 secs

     total energy              =    -951.81156265 Ry
     Harris-Foulkes estimate   =    -951.81174369 Ry
     estimated scf accuracy    <       0.01084118 Ry

     total magnetization       =     0.00 Bohr mag/cell
     absolute magnetization    =     0.14 Bohr mag/cell

     iteration # 24     ecut=    70.00 Ry     beta= 0.70
     Davidson diagonalization with overlap
     ethr =  5.02E-06,  avg # of iterations =  2.0

     negative rho (up, down):  1.368E-03 7.193E-02

     total cpu time spent up to now is     2631.5 secs

     total energy              =    -951.81198454 Ry
     Harris-Foulkes estimate   =    -951.81199249 Ry
     estimated scf accuracy    <       0.00398820 Ry

     total magnetization       =     0.12 Bohr mag/cell
     absolute magnetization    =     0.18 Bohr mag/cell

     iteration # 25     ecut=    70.00 Ry     beta= 0.70
     Davidson diagonalization with overlap
     ethr =  1.85E-06,  avg # of iterations =  3.5

     negative rho (up, down):  1.304E-03 4.899E-02

     total cpu time spent up to now is     2735.8 secs

     total energy              =    -951.81214788 Ry
     Harris-Foulkes estimate   =    -951.81230450 Ry
     estimated scf accuracy    <       0.00108777 Ry

     total magnetization       =     0.08 Bohr mag/cell
     absolute magnetization    =     0.13 Bohr mag/cell

     iteration # 26     ecut=    70.00 Ry     beta= 0.70
     Davidson diagonalization with overlap
     ethr =  5.04E-07,  avg # of iterations =  3.0

     negative rho (up, down):  1.789E-03 8.154E-02

     total cpu time spent up to now is     2847.8 secs

     total energy              =    -951.81168574 Ry
     Harris-Foulkes estimate   =    -951.81270229 Ry
     estimated scf accuracy    <       0.01234935 Ry

     total magnetization       =     0.07 Bohr mag/cell
     absolute magnetization    =     0.20 Bohr mag/cell

     iteration # 27     ecut=    70.00 Ry     beta= 0.70
     Davidson diagonalization with overlap
     ethr =  5.04E-07,  avg # of iterations =  3.0

     negative rho (up, down):  1.285E-03 3.493E-02

     total cpu time spent up to now is     2958.7 secs

     total energy              =    -951.81225954 Ry
     Harris-Foulkes estimate   =    -951.81210366 Ry
     estimated scf accuracy    <       0.00059502 Ry

     total magnetization       =     0.07 Bohr mag/cell
     absolute magnetization    =     0.11 Bohr mag/cell

     iteration # 28     ecut=    70.00 Ry     beta= 0.70
     Davidson diagonalization with overlap
     ethr =  2.75E-07,  avg # of iterations =  2.5

     negative rho (up, down):  1.421E-03 1.201E-01

     total cpu time spent up to now is     3070.0 secs

     total energy              =    -951.81204663 Ry
     Harris-Foulkes estimate   =    -951.81252715 Ry
     estimated scf accuracy    <       0.01053351 Ry

     total magnetization       =     0.07 Bohr mag/cell
     absolute magnetization    =     0.23 Bohr mag/cell

     iteration # 29     ecut=    70.00 Ry     beta= 0.70
     Davidson diagonalization with overlap
     ethr =  2.75E-07,  avg # of iterations =  3.0

     negative rho (up, down):  1.367E-03 8.694E-02

     total cpu time spent up to now is     3178.1 secs

     total energy              =    -951.81239422 Ry
     Harris-Foulkes estimate   =    -951.81223360 Ry
     estimated scf accuracy    <       0.00312631 Ry

     total magnetization       =     0.00 Bohr mag/cell
     absolute magnetization    =     0.11 Bohr mag/cell

     iteration # 30     ecut=    70.00 Ry     beta= 0.70
     Davidson diagonalization with overlap
     ethr =  2.75E-07,  avg # of iterations =  2.0

     negative rho (up, down):  1.450E-03 1.110E-01

     total cpu time spent up to now is     3276.6 secs

     total energy              =    -951.81223180 Ry
     Harris-Foulkes estimate   =    -951.81232077 Ry
     estimated scf accuracy    <       0.00627891 Ry

     total magnetization       =     0.07 Bohr mag/cell
     absolute magnetization    =     0.20 Bohr mag/cell

     iteration # 31     ecut=    70.00 Ry     beta= 0.70
     Davidson diagonalization with overlap
     ethr =  2.75E-07,  avg # of iterations =  1.5

     negative rho (up, down):  1.526E-03 1.118E-01

     total cpu time spent up to now is     3373.2 secs

     total energy              =    -951.81213996 Ry
     Harris-Foulkes estimate   =    -951.81223835 Ry
     estimated scf accuracy    <       0.00586220 Ry

     total magnetization       =     0.07 Bohr mag/cell
     absolute magnetization    =     0.19 Bohr mag/cell

     iteration # 32     ecut=    70.00 Ry     beta= 0.70
     Davidson diagonalization with overlap
     ethr =  2.75E-07,  avg # of iterations =  2.0

     negative rho (up, down):  1.405E-03 9.409E-02

     total cpu time spent up to now is     3471.2 secs

     total energy              =    -951.81227863 Ry
     Harris-Foulkes estimate   =    -951.81215619 Ry
     estimated scf accuracy    <       0.00268489 Ry

     total magnetization       =     0.08 Bohr mag/cell
     absolute magnetization    =     0.17 Bohr mag/cell

     iteration # 33     ecut=    70.00 Ry     beta= 0.70
     Davidson diagonalization with overlap
     ethr =  2.75E-07,  avg # of iterations =  1.5

     negative rho (up, down):  1.427E-03 1.024E-01

     total cpu time spent up to now is     3567.8 secs

     total energy              =    -951.81226428 Ry
     Harris-Foulkes estimate   =    -951.81228608 Ry
     estimated scf accuracy    <       0.00456114 Ry

     total magnetization       =     0.07 Bohr mag/cell
     absolute magnetization    =     0.18 Bohr mag/cell

     iteration # 34     ecut=    70.00 Ry     beta= 0.70
     Davidson diagonalization with overlap
     ethr =  2.75E-07,  avg # of iterations =  1.0

     negative rho (up, down):  1.470E-03 1.057E-01

     total cpu time spent up to now is     3664.0 secs

     total energy              =    -951.81225835 Ry
     Harris-Foulkes estimate   =    -951.81226653 Ry
     estimated scf accuracy    <       0.00511331 Ry

     total magnetization       =     0.06 Bohr mag/cell
     absolute magnetization    =     0.18 Bohr mag/cell

     iteration # 35     ecut=    70.00 Ry     beta= 0.70
     Davidson diagonalization with overlap
     ethr =  2.75E-07,  avg # of iterations =  1.0

     negative rho (up, down):  1.489E-03 1.136E-01

     total cpu time spent up to now is     3760.1 secs

     total energy              =    -951.81224179 Ry
     Harris-Foulkes estimate   =    -951.81227345 Ry
     estimated scf accuracy    <       0.00620522 Ry

     total magnetization       =     0.06 Bohr mag/cell
     absolute magnetization    =     0.19 Bohr mag/cell

     iteration # 36     ecut=    70.00 Ry     beta= 0.70
     Davidson diagonalization with overlap
     ethr =  2.75E-07,  avg # of iterations =  1.0

     negative rho (up, down):  1.494E-03 1.226E-01

     total cpu time spent up to now is     3856.3 secs

     total energy              =    -951.81202911 Ry
     Harris-Foulkes estimate   =    -951.81224587 Ry
     estimated scf accuracy    <       0.00692125 Ry

     total magnetization       =     0.06 Bohr mag/cell
     absolute magnetization    =     0.20 Bohr mag/cell

     iteration # 37     ecut=    70.00 Ry     beta= 0.70
     Davidson diagonalization with overlap
     ethr =  2.75E-07,  avg # of iterations =  2.5

     negative rho (up, down):  1.421E-03 7.790E-02

     total cpu time spent up to now is     3961.9 secs

     total energy              =    -951.81214315 Ry
     Harris-Foulkes estimate   =    -951.81219486 Ry
     estimated scf accuracy    <       0.00349409 Ry

     total magnetization       =     0.05 Bohr mag/cell
     absolute magnetization    =     0.14 Bohr mag/cell

     iteration # 38     ecut=    70.00 Ry     beta= 0.70
     Davidson diagonalization with overlap
     ethr =  2.75E-07,  avg # of iterations =  2.5

     negative rho (up, down):  1.298E-03 8.095E-02

     total cpu time spent up to now is     4070.5 secs

     total energy              =    -951.81241201 Ry
     Harris-Foulkes estimate   =    -951.81235293 Ry
     estimated scf accuracy    <       0.00263489 Ry

     total magnetization       =    -0.00 Bohr mag/cell
     absolute magnetization    =     0.11 Bohr mag/cell

     iteration # 39     ecut=    70.00 Ry     beta= 0.70
     Davidson diagonalization with overlap
     ethr =  2.75E-07,  avg # of iterations =  2.0

     negative rho (up, down):  1.298E-03 1.173E-01

     total cpu time spent up to now is     4169.5 secs

     total energy              =    -951.81216411 Ry
     Harris-Foulkes estimate   =    -951.81234407 Ry
     estimated scf accuracy    <       0.00480034 Ry

     total magnetization       =     0.06 Bohr mag/cell
     absolute magnetization    =     0.18 Bohr mag/cell

     iteration # 40     ecut=    70.00 Ry     beta= 0.70
     Davidson diagonalization with overlap
     ethr =  2.75E-07,  avg # of iterations =  2.0

     negative rho (up, down):  1.268E-03 7.381E-02

     total cpu time spent up to now is     4270.1 secs

     total energy              =    -951.81228662 Ry
     Harris-Foulkes estimate   =    -951.81220850 Ry
     estimated scf accuracy    <       0.00089700 Ry

     total magnetization       =     0.10 Bohr mag/cell
     absolute magnetization    =     0.16 Bohr mag/cell

     iteration # 41     ecut=    70.00 Ry     beta= 0.70
     Davidson diagonalization with overlap
     ethr =  2.75E-07,  avg # of iterations =  2.0

     negative rho (up, down):  1.260E-03 3.574E-02

     total cpu time spent up to now is     4368.7 secs

     total energy              =    -951.81235425 Ry
     Harris-Foulkes estimate   =    -951.81230786 Ry
     estimated scf accuracy    <       0.00046795 Ry

     total magnetization       =     0.08 Bohr mag/cell
     absolute magnetization    =     0.13 Bohr mag/cell

     iteration # 42     ecut=    70.00 Ry     beta= 0.70
     Davidson diagonalization with overlap
     ethr =  2.17E-07,  avg # of iterations =  2.0

     negative rho (up, down):  1.251E-03 3.591E-02

     total cpu time spent up to now is     4465.7 secs

     total energy              =    -951.81232636 Ry
     Harris-Foulkes estimate   =    -951.81235498 Ry
     estimated scf accuracy    <       0.00042294 Ry

     total magnetization       =     0.08 Bohr mag/cell
     absolute magnetization    =     0.13 Bohr mag/cell

     iteration # 43     ecut=    70.00 Ry     beta= 0.70
     Davidson diagonalization with overlap
     ethr =  1.96E-07,  avg # of iterations =  2.0

     negative rho (up, down):  1.326E-03 2.517E-02

     total cpu time spent up to now is     4569.4 secs

     total energy              =    -951.81231400 Ry
     Harris-Foulkes estimate   =    -951.81237646 Ry
     estimated scf accuracy    <       0.00133365 Ry

     total magnetization       =     0.07 Bohr mag/cell
     absolute magnetization    =     0.13 Bohr mag/cell

     iteration # 44     ecut=    70.00 Ry     beta= 0.70
     Davidson diagonalization with overlap
     ethr =  1.96E-07,  avg # of iterations =  2.0

     negative rho (up, down):  1.248E-03 4.260E-02

     total cpu time spent up to now is     4669.9 secs

     total energy              =    -951.81242297 Ry
     Harris-Foulkes estimate   =    -951.81243500 Ry
     estimated scf accuracy    <       0.00075560 Ry

     total magnetization       =    -0.00 Bohr mag/cell
     absolute magnetization    =     0.08 Bohr mag/cell

     iteration # 45     ecut=    70.00 Ry     beta= 0.70
     Davidson diagonalization with overlap
     ethr =  1.96E-07,  avg # of iterations =  2.0

     negative rho (up, down):  1.226E-03 1.158E-02

     total cpu time spent up to now is     4768.7 secs

     total energy              =    -951.81237409 Ry
     Harris-Foulkes estimate   =    -951.81234716 Ry
     estimated scf accuracy    <       0.00001281 Ry

     total magnetization       =     0.09 Bohr mag/cell
     absolute magnetization    =     0.11 Bohr mag/cell

     iteration # 46     ecut=    70.00 Ry     beta= 0.70
     Davidson diagonalization with overlap
     ethr =  5.93E-09,  avg # of iterations =  3.0

     negative rho (up, down):  1.227E-03 2.041E-02

     total cpu time spent up to now is     4885.6 secs

     total energy              =    -951.81247073 Ry
     Harris-Foulkes estimate   =    -951.81247136 Ry
     estimated scf accuracy    <       0.00024453 Ry

     total magnetization       =     0.00 Bohr mag/cell
     absolute magnetization    =     0.06 Bohr mag/cell

     iteration # 47     ecut=    70.00 Ry     beta= 0.70
     Davidson diagonalization with overlap
     ethr =  5.93E-09,  avg # of iterations =  2.0

     negative rho (up, down):  1.233E-03 2.868E-02

     total cpu time spent up to now is     4988.1 secs

     total energy              =    -951.81237147 Ry
     Harris-Foulkes estimate   =    -951.81237746 Ry
     estimated scf accuracy    <       0.00034168 Ry

     total magnetization       =     0.09 Bohr mag/cell
     absolute magnetization    =     0.13 Bohr mag/cell

     iteration # 48     ecut=    70.00 Ry     beta= 0.70
     Davidson diagonalization with overlap
     ethr =  5.93E-09,  avg # of iterations =  2.0

     negative rho (up, down):  1.240E-03 3.512E-02

     total cpu time spent up to now is     5088.5 secs

     total energy              =    -951.81236307 Ry
     Harris-Foulkes estimate   =    -951.81237260 Ry
     estimated scf accuracy    <       0.00045700 Ry

     total magnetization       =     0.09 Bohr mag/cell
     absolute magnetization    =     0.14 Bohr mag/cell

     iteration # 49     ecut=    70.00 Ry     beta= 0.70
     Davidson diagonalization with overlap
     ethr =  5.93E-09,  avg # of iterations =  2.0

     negative rho (up, down):  1.243E-03 3.802E-02

     total cpu time spent up to now is     5186.4 secs

     total energy              =    -951.81236049 Ry
     Harris-Foulkes estimate   =    -951.81236336 Ry
     estimated scf accuracy    <       0.00046962 Ry

     total magnetization       =     0.09 Bohr mag/cell
     absolute magnetization    =     0.14 Bohr mag/cell

     iteration # 50     ecut=    70.00 Ry     beta= 0.70
     Davidson diagonalization with overlap
     ethr =  5.93E-09,  avg # of iterations =  1.0

     negative rho (up, down):  1.247E-03 3.903E-02

     total cpu time spent up to now is     5282.6 secs

     total energy              =    -951.81236411 Ry
     Harris-Foulkes estimate   =    -951.81236059 Ry
     estimated scf accuracy    <       0.00048312 Ry

     total magnetization       =     0.09 Bohr mag/cell
     absolute magnetization    =     0.14 Bohr mag/cell

     iteration # 51     ecut=    70.00 Ry     beta= 0.70
     Davidson diagonalization with overlap
     ethr =  5.93E-09,  avg # of iterations =  3.0

     negative rho (up, down):  1.269E-03 5.111E-02

     total cpu time spent up to now is     5395.6 secs

     total energy              =    -951.81234286 Ry
     Harris-Foulkes estimate   =    -951.81237194 Ry
     estimated scf accuracy    <       0.00112176 Ry

     total magnetization       =     0.07 Bohr mag/cell
     absolute magnetization    =     0.14 Bohr mag/cell

     iteration # 52     ecut=    70.00 Ry     beta= 0.70
     Davidson diagonalization with overlap
     ethr =  5.93E-09,  avg # of iterations =  2.0

     negative rho (up, down):  1.269E-03 5.287E-02

     total cpu time spent up to now is     5494.7 secs

     total energy              =    -951.81231205 Ry
     Harris-Foulkes estimate   =    -951.81234337 Ry
     estimated scf accuracy    <       0.00089591 Ry

     total magnetization       =     0.07 Bohr mag/cell
     absolute magnetization    =     0.13 Bohr mag/cell

     iteration # 53     ecut=    70.00 Ry     beta= 0.70
     Davidson diagonalization with overlap
     ethr =  5.93E-09,  avg # of iterations =  3.0

     negative rho (up, down):  1.228E-03 3.163E-02

     total cpu time spent up to now is     5611.0 secs

     total energy              =    -951.81237075 Ry
     Harris-Foulkes estimate   =    -951.81232591 Ry
     estimated scf accuracy    <       0.00031635 Ry

     total magnetization       =     0.12 Bohr mag/cell
     absolute magnetization    =     0.16 Bohr mag/cell

     iteration # 54     ecut=    70.00 Ry     beta= 0.70
     Davidson diagonalization with overlap
     ethr =  5.93E-09,  avg # of iterations =  3.0

     negative rho (up, down):  1.254E-03 4.006E-02

     total cpu time spent up to now is     5725.7 secs

     total energy              =    -951.81235198 Ry
     Harris-Foulkes estimate   =    -951.81238403 Ry
     estimated scf accuracy    <       0.00086837 Ry

     total magnetization       =     0.08 Bohr mag/cell
     absolute magnetization    =     0.14 Bohr mag/cell

     iteration # 55     ecut=    70.00 Ry     beta= 0.70
     Davidson diagonalization with overlap
     ethr =  5.93E-09,  avg # of iterations =  3.5

     negative rho (up, down):  1.408E-03 1.251E-01

     total cpu time spent up to now is     5871.8 secs

     total energy              =    -951.81179433 Ry
     Harris-Foulkes estimate   =    -951.81247151 Ry
     estimated scf accuracy    <       0.01083398 Ry

     total magnetization       =    -0.08 Bohr mag/cell
     absolute magnetization    =     0.23 Bohr mag/cell

     iteration # 56     ecut=    70.00 Ry     beta= 0.70
     Davidson diagonalization with overlap
     ethr =  5.93E-09,  avg # of iterations =  4.0

     negative rho (up, down):  1.342E-03 7.821E-02

     total cpu time spent up to now is     6031.9 secs

     total energy              =    -951.81221468 Ry
     Harris-Foulkes estimate   =    -951.81222706 Ry
     estimated scf accuracy    <       0.00241475 Ry

     total magnetization       =    -0.00 Bohr mag/cell
     absolute magnetization    =     0.11 Bohr mag/cell

     iteration # 57     ecut=    70.00 Ry     beta= 0.70
     Davidson diagonalization with overlap
     ethr =  5.93E-09,  avg # of iterations =  4.0

     negative rho (up, down):  1.231E-03 2.935E-02

     total cpu time spent up to now is     6178.1 secs

     total energy              =    -951.81234597 Ry
     Harris-Foulkes estimate   =    -951.81222554 Ry
     estimated scf accuracy    <       0.00011679 Ry

     total magnetization       =     0.00 Bohr mag/cell
     absolute magnetization    =     0.07 Bohr mag/cell

     iteration # 58     ecut=    70.00 Ry     beta= 0.70
     Davidson diagonalization with overlap
     ethr =  5.93E-09,  avg # of iterations =  3.0

     negative rho (up, down):  1.236E-03 4.140E-02

     total cpu time spent up to now is     6292.7 secs

     total energy              =    -951.81242098 Ry
     Harris-Foulkes estimate   =    -951.81243985 Ry
     estimated scf accuracy    <       0.00052419 Ry

     total magnetization       =     0.00 Bohr mag/cell
     absolute magnetization    =     0.09 Bohr mag/cell

     iteration # 59     ecut=    70.00 Ry     beta= 0.70
     Davidson diagonalization with overlap
     ethr =  5.93E-09,  avg # of iterations =  2.0

     negative rho (up, down):  1.236E-03 2.863E-02

     total cpu time spent up to now is     6399.3 secs

     total energy              =    -951.81244878 Ry
     Harris-Foulkes estimate   =    -951.81242457 Ry
     estimated scf accuracy    <       0.00013114 Ry

     total magnetization       =    -0.00 Bohr mag/cell
     absolute magnetization    =     0.07 Bohr mag/cell

     iteration # 60     ecut=    70.00 Ry     beta= 0.70
     Davidson diagonalization with overlap
     ethr =  5.93E-09,  avg # of iterations =  3.0

     negative rho (up, down):  1.252E-03 2.336E-02

     total cpu time spent up to now is     6514.3 secs

     total energy              =    -951.81245372 Ry
     Harris-Foulkes estimate   =    -951.81245573 Ry
     estimated scf accuracy    <       0.00020849 Ry

     total magnetization       =     0.00 Bohr mag/cell
     absolute magnetization    =     0.07 Bohr mag/cell

     iteration # 61     ecut=    70.00 Ry     beta= 0.70
     Davidson diagonalization with overlap
     ethr =  5.93E-09,  avg # of iterations =  3.0

     negative rho (up, down):  1.308E-03 5.684E-02

     total cpu time spent up to now is     6642.6 secs

     total energy              =    -951.81233756 Ry
     Harris-Foulkes estimate   =    -951.81239348 Ry
     estimated scf accuracy    <       0.00164279 Ry

     total magnetization       =     0.07 Bohr mag/cell
     absolute magnetization    =     0.15 Bohr mag/cell

     iteration # 62     ecut=    70.00 Ry     beta= 0.70
     Davidson diagonalization with overlap
     ethr =  5.93E-09,  avg # of iterations =  1.0

     negative rho (up, down):  1.314E-03 7.068E-02

     total cpu time spent up to now is     6738.3 secs

     total energy              =    -951.81223701 Ry
     Harris-Foulkes estimate   =    -951.81233768 Ry
     estimated scf accuracy    <       0.00169901 Ry

     total magnetization       =     0.07 Bohr mag/cell
     absolute magnetization    =     0.15 Bohr mag/cell

     iteration # 63     ecut=    70.00 Ry     beta= 0.70
     Davidson diagonalization with overlap
     ethr =  5.93E-09,  avg # of iterations =  3.0

     negative rho (up, down):  1.232E-03 1.424E-02

     total cpu time spent up to now is     6862.1 secs

     total energy              =    -951.81236810 Ry
     Harris-Foulkes estimate   =    -951.81227828 Ry
     estimated scf accuracy    <       0.00005889 Ry

     total magnetization       =     0.04 Bohr mag/cell
     absolute magnetization    =     0.09 Bohr mag/cell

     iteration # 64     ecut=    70.00 Ry     beta= 0.70
     Davidson diagonalization with overlap
     ethr =  5.93E-09,  avg # of iterations =  3.0

     negative rho (up, down):  1.246E-03 2.668E-02

     total cpu time spent up to now is     6983.1 secs

     total energy              =    -951.81235480 Ry
     Harris-Foulkes estimate   =    -951.81237939 Ry
     estimated scf accuracy    <       0.00037698 Ry

     total magnetization       =     0.11 Bohr mag/cell
     absolute magnetization    =     0.15 Bohr mag/cell

     iteration # 65     ecut=    70.00 Ry     beta= 0.70
     Davidson diagonalization with overlap
     ethr =  5.93E-09,  avg # of iterations =  2.5

     negative rho (up, down):  1.227E-03 8.250E-03

     total cpu time spent up to now is     7092.2 secs

     total energy              =    -951.81237593 Ry
     Harris-Foulkes estimate   =    -951.81236073 Ry
     estimated scf accuracy    <       0.00000230 Ry

     total magnetization       =     0.07 Bohr mag/cell
     absolute magnetization    =     0.10 Bohr mag/cell

     iteration # 66     ecut=    70.00 Ry     beta= 0.70
     Davidson diagonalization with overlap
     ethr =  1.06E-09,  avg # of iterations =  2.0

     negative rho (up, down):  1.227E-03 7.877E-03

     total cpu time spent up to now is     7196.3 secs

     total energy              =    -951.81246551 Ry
     Harris-Foulkes estimate   =    -951.81246776 Ry
     estimated scf accuracy    <       0.00002441 Ry

     total magnetization       =    -0.00 Bohr mag/cell
     absolute magnetization    =     0.05 Bohr mag/cell

     iteration # 67     ecut=    70.00 Ry     beta= 0.70
     Davidson diagonalization with overlap
     ethr =  1.06E-09,  avg # of iterations =  1.5

     negative rho (up, down):  1.226E-03 7.221E-03

     total cpu time spent up to now is     7292.7 secs

     total energy              =    -951.81246613 Ry
     Harris-Foulkes estimate   =    -951.81246558 Ry
     estimated scf accuracy    <       0.00001720 Ry

     total magnetization       =     0.00 Bohr mag/cell
     absolute magnetization    =     0.05 Bohr mag/cell

     iteration # 68     ecut=    70.00 Ry     beta= 0.70
     Davidson diagonalization with overlap
     ethr =  1.06E-09,  avg # of iterations =  2.0

     negative rho (up, down):  1.227E-03 3.158E-03

     total cpu time spent up to now is     7394.0 secs

     total energy              =    -951.81246735 Ry
     Harris-Foulkes estimate   =    -951.81246635 Ry
     estimated scf accuracy    <       0.00000761 Ry

     total magnetization       =    -0.00 Bohr mag/cell
     absolute magnetization    =     0.05 Bohr mag/cell

     iteration # 69     ecut=    70.00 Ry     beta= 0.70
     Davidson diagonalization with overlap
     ethr =  1.06E-09,  avg # of iterations =  2.0

     negative rho (up, down):  1.226E-03 1.631E-03

     total cpu time spent up to now is     7491.2 secs

     total energy              =    -951.81246887 Ry
     Harris-Foulkes estimate   =    -951.81246741 Ry
     estimated scf accuracy    <       0.00000546 Ry

     total magnetization       =    -0.00 Bohr mag/cell
     absolute magnetization    =     0.05 Bohr mag/cell

     iteration # 70     ecut=    70.00 Ry     beta= 0.70
     Davidson diagonalization with overlap
     ethr =  1.06E-09,  avg # of iterations =  1.0

     negative rho (up, down):  1.227E-03 1.951E-03

     total cpu time spent up to now is     7587.2 secs

     total energy              =    -951.81246951 Ry
     Harris-Foulkes estimate   =    -951.81246891 Ry
     estimated scf accuracy    <       0.00000610 Ry

     total magnetization       =    -0.00 Bohr mag/cell
     absolute magnetization    =     0.05 Bohr mag/cell

     iteration # 71     ecut=    70.00 Ry     beta= 0.70
     Davidson diagonalization with overlap
     ethr =  1.06E-09,  avg # of iterations =  1.5

     negative rho (up, down):  1.227E-03 3.585E-03

     total cpu time spent up to now is     7683.8 secs

     total energy              =    -951.81246981 Ry
     Harris-Foulkes estimate   =    -951.81246959 Ry
     estimated scf accuracy    <       0.00000948 Ry

     total magnetization       =     0.00 Bohr mag/cell
     absolute magnetization    =     0.05 Bohr mag/cell

     iteration # 72     ecut=    70.00 Ry     beta= 0.70
     Davidson diagonalization with overlap
     ethr =  1.06E-09,  avg # of iterations =  1.0

     negative rho (up, down):  1.227E-03 3.986E-03

     total cpu time spent up to now is     7779.9 secs

     total energy              =    -951.81246956 Ry
     Harris-Foulkes estimate   =    -951.81246982 Ry
     estimated scf accuracy    <       0.00000948 Ry

     total magnetization       =     0.00 Bohr mag/cell
     absolute magnetization    =     0.05 Bohr mag/cell

     iteration # 73     ecut=    70.00 Ry     beta= 0.70
     Davidson diagonalization with overlap
     ethr =  1.06E-09,  avg # of iterations =  2.0

     negative rho (up, down):  1.227E-03 4.747E-03

     total cpu time spent up to now is     7877.6 secs

     total energy              =    -951.81246973 Ry
     Harris-Foulkes estimate   =    -951.81246963 Ry
     estimated scf accuracy    <       0.00001008 Ry

     total magnetization       =     0.00 Bohr mag/cell
     absolute magnetization    =     0.05 Bohr mag/cell

     iteration # 74     ecut=    70.00 Ry     beta= 0.70
     Davidson diagonalization with overlap
     ethr =  1.06E-09,  avg # of iterations =  1.5

     negative rho (up, down):  1.225E-03 7.003E-03

     total cpu time spent up to now is     7975.0 secs

     total energy              =    -951.81248235 Ry
     Harris-Foulkes estimate   =    -951.81246977 Ry
     estimated scf accuracy    <       0.00001552 Ry

     total magnetization       =    -0.00 Bohr mag/cell
     absolute magnetization    =     0.05 Bohr mag/cell

     iteration # 75     ecut=    70.00 Ry     beta= 0.70
     Davidson diagonalization with overlap
     ethr =  1.06E-09,  avg # of iterations =  3.5

     negative rho (up, down):  1.225E-03 9.995E-03

     total cpu time spent up to now is     8116.6 secs

     total energy              =    -951.81236821 Ry
     Harris-Foulkes estimate   =    -951.81234861 Ry
     estimated scf accuracy    <       0.00007318 Ry

     total magnetization       =     0.16 Bohr mag/cell
     absolute magnetization    =     0.18 Bohr mag/cell

     iteration # 76     ecut=    70.00 Ry     beta= 0.70
     Davidson diagonalization with overlap
     ethr =  1.06E-09,  avg # of iterations =  4.0

     negative rho (up, down):  1.225E-03 4.251E-03

     total cpu time spent up to now is     8260.1 secs

     total energy              =    -951.81247557 Ry
     Harris-Foulkes estimate   =    -951.81247537 Ry
     estimated scf accuracy    <       0.00001569 Ry

     total magnetization       =     0.00 Bohr mag/cell
     absolute magnetization    =     0.04 Bohr mag/cell

     iteration # 77     ecut=    70.00 Ry     beta= 0.70
     Davidson diagonalization with overlap
     ethr =  1.06E-09,  avg # of iterations =  2.0

     negative rho (up, down):  1.225E-03 8.593E-03

     total cpu time spent up to now is     8364.5 secs

     total energy              =    -951.81247474 Ry
     Harris-Foulkes estimate   =    -951.81247597 Ry
     estimated scf accuracy    <       0.00002525 Ry

     total magnetization       =     0.00 Bohr mag/cell
     absolute magnetization    =     0.05 Bohr mag/cell

     iteration # 78     ecut=    70.00 Ry     beta= 0.70
     Davidson diagonalization with overlap
     ethr =  1.06E-09,  avg # of iterations =  2.0

     negative rho (up, down):  1.225E-03 8.270E-03

     total cpu time spent up to now is     8462.6 secs

     total energy              =    -951.81247573 Ry
     Harris-Foulkes estimate   =    -951.81247483 Ry
     estimated scf accuracy    <       0.00001475 Ry

     total magnetization       =    -0.00 Bohr mag/cell
     absolute magnetization    =     0.04 Bohr mag/cell

     iteration # 79     ecut=    70.00 Ry     beta= 0.70
     Davidson diagonalization with overlap
     ethr =  1.06E-09,  avg # of iterations =  2.0

     negative rho (up, down):  1.225E-03 4.995E-03

     total cpu time spent up to now is     8562.2 secs

     total energy              =    -951.81247846 Ry
     Harris-Foulkes estimate   =    -951.81247588 Ry
     estimated scf accuracy    <       0.00000538 Ry

     total magnetization       =     0.00 Bohr mag/cell
     absolute magnetization    =     0.04 Bohr mag/cell

     iteration # 80     ecut=    70.00 Ry     beta= 0.70
     Davidson diagonalization with overlap
     ethr =  1.06E-09,  avg # of iterations =  2.5

     negative rho (up, down):  1.227E-03 5.012E-03

     total cpu time spent up to now is     8671.1 secs

     total energy              =    -951.81248278 Ry
     Harris-Foulkes estimate   =    -951.81247922 Ry
     estimated scf accuracy    <       0.00002309 Ry

     total magnetization       =     0.00 Bohr mag/cell
     absolute magnetization    =     0.04 Bohr mag/cell

     iteration # 81     ecut=    70.00 Ry     beta= 0.70
     Davidson diagonalization with overlap
     ethr =  1.06E-09,  avg # of iterations =  3.0

     negative rho (up, down):  1.230E-03 1.474E-02

     total cpu time spent up to now is     8789.5 secs

     total energy              =    -951.81235237 Ry
     Harris-Foulkes estimate   =    -951.81235563 Ry
     estimated scf accuracy    <       0.00012561 Ry

     total magnetization       =     0.17 Bohr mag/cell
     absolute magnetization    =     0.19 Bohr mag/cell

     iteration # 82     ecut=    70.00 Ry     beta= 0.70
     Davidson diagonalization with overlap
     ethr =  1.06E-09,  avg # of iterations =  3.0

     negative rho (up, down):  1.229E-03 2.427E-02

     total cpu time spent up to now is     8899.5 secs

     total energy              =    -951.81234937 Ry
     Harris-Foulkes estimate   =    -951.81235322 Ry
     estimated scf accuracy    <       0.00018424 Ry

     total magnetization       =     0.17 Bohr mag/cell
     absolute magnetization    =     0.19 Bohr mag/cell

     iteration # 83     ecut=    70.00 Ry     beta= 0.70
     Davidson diagonalization with overlap
     ethr =  1.06E-09,  avg # of iterations =  1.5

     negative rho (up, down):  1.230E-03 2.649E-02

     total cpu time spent up to now is     8996.8 secs

     total energy              =    -951.81235568 Ry
     Harris-Foulkes estimate   =    -951.81234943 Ry
     estimated scf accuracy    <       0.00018398 Ry

     total magnetization       =     0.17 Bohr mag/cell
     absolute magnetization    =     0.19 Bohr mag/cell

     iteration # 84     ecut=    70.00 Ry     beta= 0.70
     Davidson diagonalization with overlap
     ethr =  1.06E-09,  avg # of iterations =  3.0

     negative rho (up, down):  1.232E-03 3.386E-02

     total cpu time spent up to now is     9106.2 secs

     total energy              =    -951.81234362 Ry
     Harris-Foulkes estimate   =    -951.81235669 Ry
     estimated scf accuracy    <       0.00035290 Ry

     total magnetization       =     0.16 Bohr mag/cell
     absolute magnetization    =     0.20 Bohr mag/cell

     iteration # 85     ecut=    70.00 Ry     beta= 0.70
     Davidson diagonalization with overlap
     ethr =  1.06E-09,  avg # of iterations =  3.0

     negative rho (up, down):  1.226E-03 1.883E-02

     total cpu time spent up to now is     9221.6 secs

     total energy              =    -951.81236483 Ry
     Harris-Foulkes estimate   =    -951.81234814 Ry
     estimated scf accuracy    <       0.00004706 Ry

     total magnetization       =     0.16 Bohr mag/cell
     absolute magnetization    =     0.18 Bohr mag/cell

     iteration # 86     ecut=    70.00 Ry     beta= 0.70
     Davidson diagonalization with overlap
     ethr =  1.06E-09,  avg # of iterations =  2.0

     negative rho (up, down):  1.226E-03 1.088E-02

     total cpu time spent up to now is     9322.3 secs

     total energy              =    -951.81237010 Ry
     Harris-Foulkes estimate   =    -951.81236493 Ry
     estimated scf accuracy    <       0.00001856 Ry

     total magnetization       =     0.14 Bohr mag/cell
     absolute magnetization    =     0.16 Bohr mag/cell

     iteration # 87     ecut=    70.00 Ry     beta= 0.70
     Davidson diagonalization with overlap
     ethr =  1.06E-09,  avg # of iterations =  2.0

     negative rho (up, down):  1.226E-03 5.025E-03

     total cpu time spent up to now is     9425.3 secs

     total energy              =    -951.81247703 Ry
     Harris-Foulkes estimate   =    -951.81247633 Ry
     estimated scf accuracy    <       0.00002201 Ry

     total magnetization       =     0.00 Bohr mag/cell
     absolute magnetization    =     0.04 Bohr mag/cell

     iteration # 88     ecut=    70.00 Ry     beta= 0.70
     Davidson diagonalization with overlap
     ethr =  1.06E-09,  avg # of iterations =  1.5

     negative rho (up, down):  1.227E-03 8.257E-03

     total cpu time spent up to now is     9522.7 secs

     total energy              =    -951.81247336 Ry
     Harris-Foulkes estimate   =    -951.81247708 Ry
     estimated scf accuracy    <       0.00002403 Ry

     total magnetization       =    -0.00 Bohr mag/cell
     absolute magnetization    =     0.04 Bohr mag/cell

     iteration # 89     ecut=    70.00 Ry     beta= 0.70
     Davidson diagonalization with overlap
     ethr =  1.06E-09,  avg # of iterations =  3.0

     negative rho (up, down):  1.230E-03 1.614E-02

     total cpu time spent up to now is     9635.7 secs

     total energy              =    -951.81246791 Ry
     Harris-Foulkes estimate   =    -951.81247502 Ry
     estimated scf accuracy    <       0.00011327 Ry

     total magnetization       =     0.00 Bohr mag/cell
     absolute magnetization    =     0.05 Bohr mag/cell

     iteration # 90     ecut=    70.00 Ry     beta= 0.70
     Davidson diagonalization with overlap
     ethr =  1.06E-09,  avg # of iterations =  3.0

     negative rho (up, down):  1.231E-03 2.875E-02

     total cpu time spent up to now is     9749.7 secs

     total energy              =    -951.81246655 Ry
     Harris-Foulkes estimate   =    -951.81246953 Ry
     estimated scf accuracy    <       0.00027396 Ry

     total magnetization       =     0.00 Bohr mag/cell
     absolute magnetization    =     0.06 Bohr mag/cell

     iteration # 91     ecut=    70.00 Ry     beta= 0.70
     Davidson diagonalization with overlap
     ethr =  1.06E-09,  avg # of iterations =  3.0

     negative rho (up, down):  1.229E-03 1.829E-02

     total cpu time spent up to now is     9871.6 secs

     total energy              =    -951.81235816 Ry
     Harris-Foulkes estimate   =    -951.81236223 Ry
     estimated scf accuracy    <       0.00008464 Ry

     total magnetization       =     0.13 Bohr mag/cell
     absolute magnetization    =     0.16 Bohr mag/cell

     iteration # 92     ecut=    70.00 Ry     beta= 0.70
     Davidson diagonalization with overlap
     ethr =  1.06E-09,  avg # of iterations =  4.0

     negative rho (up, down):  1.229E-03 1.319E-02

     total cpu time spent up to now is     9990.3 secs

     total energy              =    -951.81235923 Ry
     Harris-Foulkes estimate   =    -951.81235925 Ry
     estimated scf accuracy    <       0.00006268 Ry

     total magnetization       =     0.16 Bohr mag/cell
     absolute magnetization    =     0.18 Bohr mag/cell

     iteration # 93     ecut=    70.00 Ry     beta= 0.70
     Davidson diagonalization with overlap
     ethr =  1.06E-09,  avg # of iterations =  2.0

     negative rho (up, down):  1.228E-03 2.027E-02

     total cpu time spent up to now is    10093.6 secs

     total energy              =    -951.81235890 Ry
     Harris-Foulkes estimate   =    -951.81235954 Ry
     estimated scf accuracy    <       0.00011061 Ry

     total magnetization       =     0.16 Bohr mag/cell
     absolute magnetization    =     0.19 Bohr mag/cell

     iteration # 94     ecut=    70.00 Ry     beta= 0.70
     Davidson diagonalization with overlap
     ethr =  1.06E-09,  avg # of iterations =  2.0

     negative rho (up, down):  1.227E-03 1.436E-02

     total cpu time spent up to now is    10198.2 secs

     total energy              =    -951.81236039 Ry
     Harris-Foulkes estimate   =    -951.81235932 Ry
     estimated scf accuracy    <       0.00003635 Ry

     total magnetization       =     0.16 Bohr mag/cell
     absolute magnetization    =     0.18 Bohr mag/cell

     iteration # 95     ecut=    70.00 Ry     beta= 0.70
     Davidson diagonalization with overlap
     ethr =  1.06E-09,  avg # of iterations =  2.0

     negative rho (up, down):  1.227E-03 1.420E-02

     total cpu time spent up to now is    10302.1 secs

     total energy              =    -951.81236522 Ry
     Harris-Foulkes estimate   =    -951.81236069 Ry
     estimated scf accuracy    <       0.00005462 Ry

     total magnetization       =     0.16 Bohr mag/cell
     absolute magnetization    =     0.18 Bohr mag/cell

     iteration # 96     ecut=    70.00 Ry     beta= 0.70
     Davidson diagonalization with overlap
     ethr =  1.06E-09,  avg # of iterations =  2.5

     negative rho (up, down):  1.225E-03 7.335E-03

     total cpu time spent up to now is    10409.2 secs

     total energy              =    -951.81237805 Ry
     Harris-Foulkes estimate   =    -951.81236564 Ry
     estimated scf accuracy    <       0.00001821 Ry

     total magnetization       =     0.15 Bohr mag/cell
     absolute magnetization    =     0.17 Bohr mag/cell

     iteration # 97     ecut=    70.00 Ry     beta= 0.70
     Davidson diagonalization with overlap
     ethr =  1.06E-09,  avg # of iterations =  3.0

     negative rho (up, down):  1.236E-03 1.948E-02

     total cpu time spent up to now is    10530.6 secs

     total energy              =    -951.81245462 Ry
     Harris-Foulkes estimate   =    -951.81247820 Ry
     estimated scf accuracy    <       0.00029789 Ry

     total magnetization       =     0.00 Bohr mag/cell
     absolute magnetization    =     0.06 Bohr mag/cell

     iteration # 98     ecut=    70.00 Ry     beta= 0.70
     Davidson diagonalization with overlap
     ethr =  1.06E-09,  avg # of iterations =  3.0

     negative rho (up, down):  1.237E-03 2.968E-02

     total cpu time spent up to now is    10658.4 secs

     total energy              =    -951.81245093 Ry
     Harris-Foulkes estimate   =    -951.81246200 Ry
     estimated scf accuracy    <       0.00035394 Ry

     total magnetization       =    -0.00 Bohr mag/cell
     absolute magnetization    =     0.06 Bohr mag/cell

     iteration # 99     ecut=    70.00 Ry     beta= 0.70
     Davidson diagonalization with overlap
     ethr =  1.06E-09,  avg # of iterations =  3.0

     negative rho (up, down):  1.225E-03 3.990E-02

     total cpu time spent up to now is    10782.8 secs

     total energy              =    -951.81236287 Ry
     Harris-Foulkes estimate   =    -951.81237066 Ry
     estimated scf accuracy    <       0.00049413 Ry

     total magnetization       =     0.04 Bohr mag/cell
     absolute magnetization    =     0.11 Bohr mag/cell

     iteration #100     ecut=    70.00 Ry     beta= 0.70
     Davidson diagonalization with overlap
     ethr =  1.06E-09,  avg # of iterations =  3.0

     negative rho (up, down):  1.240E-03 4.344E-02

     Magnetic moment per site:
     atom:    1    charge:    0.2172    magn:    0.0001    constr:    0.0000
     atom:    2    charge:    0.2165    magn:    0.0002    constr:    0.0000
     atom:    3    charge:    1.7155    magn:    0.0007    constr:    0.0000
     atom:    4    charge:    1.7153    magn:   -0.0003    constr:    0.0000
     atom:    5    charge:    1.7169    magn:    0.0010    constr:    0.0000
     atom:    6    charge:    1.7145    magn:   -0.0001    constr:    0.0000
     atom:    7    charge:    1.7170    magn:    0.0010    constr:    0.0000
     atom:    8    charge:    1.7152    magn:   -0.0003    constr:    0.0000
     atom:    9    charge:    1.7155    magn:    0.0007    constr:    0.0000
     atom:   10    charge:    1.7177    magn:   -0.0002    constr:    0.0000
     atom:   11    charge:    1.7155    magn:    0.0003    constr:    0.0000
     atom:   12    charge:    1.7177    magn:   -0.0002    constr:    0.0000
     atom:   13    charge:    1.7156    magn:    0.0002    constr:    0.0000
     atom:   14    charge:    1.7175    magn:    0.0002    constr:    0.0000
     atom:   15    charge:    1.7119    magn:    0.0001    constr:    0.0000
     atom:   16    charge:    1.7113    magn:   -0.0001    constr:    0.0000
     atom:   17    charge:    1.7212    magn:    0.0023    constr:    0.0000
     atom:   18    charge:    1.7114    magn:   -0.0001    constr:    0.0000
     atom:   19    charge:    1.7119    magn:    0.0001    constr:    0.0000
     atom:   20    charge:    1.7174    magn:    0.0002    constr:    0.0000
     atom:   21    charge:    1.7156    magn:    0.0002    constr:    0.0000
     atom:   22    charge:    1.7174    magn:   -0.0001    constr:    0.0000
     atom:   23    charge:    1.7156    magn:    0.0008    constr:    0.0000
     atom:   24    charge:    1.7151    magn:   -0.0003    constr:    0.0000
     atom:   25    charge:    1.7119    magn:    0.0001    constr:    0.0000
     atom:   26    charge:    1.7109    magn:   -0.0000    constr:    0.0000
     atom:   27    charge:    1.8213    magn:    0.0019    constr:    0.0000
     atom:   28    charge:   13.4112    magn:    0.0003    constr:    0.0000
     atom:   29    charge:    1.8214    magn:    0.0019    constr:    0.0000
     atom:   30    charge:    1.7109    magn:   -0.0000    constr:    0.0000
     atom:   31    charge:    1.7119    magn:    0.0001    constr:    0.0000
     atom:   32    charge:    1.7151    magn:   -0.0003    constr:    0.0000
     atom:   33    charge:    1.7169    magn:    0.0010    constr:    0.0000
     atom:   34    charge:    1.7153    magn:   -0.0004    constr:    0.0000
     atom:   35    charge:    1.7169    magn:    0.0010    constr:    0.0000
     atom:   36    charge:    1.7147    magn:   -0.0001    constr:    0.0000
     atom:   37    charge:    1.7206    magn:    0.0023    constr:    0.0000
     atom:   38    charge:    1.7129    magn:   -0.0003    constr:    0.0000
     atom:   39    charge:    1.8252    magn:    0.0027    constr:    0.0000
     atom:   40    charge:    1.7126    magn:   -0.0003    constr:    0.0000
     atom:   41    charge:    1.7206    magn:    0.0024    constr:    0.0000
     atom:   42    charge:    1.7146    magn:   -0.0001    constr:    0.0000
     atom:   43    charge:    1.7168    magn:    0.0011    constr:    0.0000
     atom:   44    charge:    1.7153    magn:   -0.0005    constr:    0.0000
     atom:   45    charge:    1.7216    magn:    0.0042    constr:    0.0000
     atom:   46    charge:    1.7154    magn:   -0.0005    constr:    0.0000
     atom:   47    charge:    1.7168    magn:    0.0010    constr:    0.0000
     atom:   48    charge:    1.7153    magn:   -0.0003    constr:    0.0000
     atom:   49    charge:    1.7116    magn:    0.0001    constr:    0.0000
     atom:   50    charge:    1.7177    magn:   -0.0001    constr:    0.0000
     atom:   51    charge:    1.7115    magn:    0.0001    constr:    0.0000
     atom:   52    charge:    1.7153    magn:   -0.0003    constr:    0.0000

     total cpu time spent up to now is    10891.9 secs

     total energy              =    -951.81235035 Ry
     Harris-Foulkes estimate   =    -951.81236353 Ry
     estimated scf accuracy    <       0.00049265 Ry

     total magnetization       =     0.03 Bohr mag/cell
     absolute magnetization    =     0.10 Bohr mag/cell

     iteration #101     ecut=    70.00 Ry     beta= 0.70
     Davidson diagonalization with overlap
     ethr =  1.06E-09,  avg # of iterations =  4.0

     negative rho (up, down):  1.233E-03 2.222E-02

     total cpu time spent up to now is    11026.6 secs

     total energy              =    -951.81236698 Ry
     Harris-Foulkes estimate   =    -951.81235173 Ry
     estimated scf accuracy    <       0.00006882 Ry

     total magnetization       =     0.09 Bohr mag/cell
     absolute magnetization    =     0.12 Bohr mag/cell

     iteration #102     ecut=    70.00 Ry     beta= 0.70
     Davidson diagonalization with overlap
     ethr =  1.06E-09,  avg # of iterations =  3.0

     negative rho (up, down):  1.228E-03 1.092E-02

     total cpu time spent up to now is    11146.0 secs

     total energy              =    -951.81237596 Ry
     Harris-Foulkes estimate   =    -951.81236920 Ry
     estimated scf accuracy    <       0.00001622 Ry

     total magnetization       =     0.09 Bohr mag/cell
     absolute magnetization    =     0.11 Bohr mag/cell

     iteration #103     ecut=    70.00 Ry     beta= 0.70
     Davidson diagonalization with overlap
     ethr =  1.06E-09,  avg # of iterations =  3.0

     negative rho (up, down):  1.229E-03 2.023E-02

     total cpu time spent up to now is    11258.9 secs

     total energy              =    -951.81246635 Ry
     Harris-Foulkes estimate   =    -951.81246974 Ry
     estimated scf accuracy    <       0.00014270 Ry

     total magnetization       =     0.00 Bohr mag/cell
     absolute magnetization    =     0.06 Bohr mag/cell

     iteration #104     ecut=    70.00 Ry     beta= 0.70
     Davidson diagonalization with overlap
     ethr =  1.06E-09,  avg # of iterations =  2.0

     negative rho (up, down):  1.229E-03 2.722E-02

     total cpu time spent up to now is    11357.8 secs

     total energy              =    -951.81246045 Ry
     Harris-Foulkes estimate   =    -951.81246645 Ry
     estimated scf accuracy    <       0.00016714 Ry

     total magnetization       =    -0.00 Bohr mag/cell
     absolute magnetization    =     0.06 Bohr mag/cell

     iteration #105     ecut=    70.00 Ry     beta= 0.70
     Davidson diagonalization with overlap
     ethr =  1.06E-09,  avg # of iterations =  3.0

     negative rho (up, down):  1.229E-03 2.621E-02

     total cpu time spent up to now is    11475.1 secs

     total energy              =    -951.81236647 Ry
     Harris-Foulkes estimate   =    -951.81237301 Ry
     estimated scf accuracy    <       0.00026090 Ry

     total magnetization       =     0.08 Bohr mag/cell
     absolute magnetization    =     0.13 Bohr mag/cell

     iteration #106     ecut=    70.00 Ry     beta= 0.70
     Davidson diagonalization with overlap
     ethr =  1.06E-09,  avg # of iterations =  3.0

     negative rho (up, down):  1.228E-03 1.494E-02

     total cpu time spent up to now is    11589.8 secs

     total energy              =    -951.81237822 Ry
     Harris-Foulkes estimate   =    -951.81236793 Ry
     estimated scf accuracy    <       0.00004322 Ry

     total magnetization       =     0.11 Bohr mag/cell
     absolute magnetization    =     0.14 Bohr mag/cell

     iteration #107     ecut=    70.00 Ry     beta= 0.70
     Davidson diagonalization with overlap
     ethr =  1.06E-09,  avg # of iterations =  3.0

     negative rho (up, down):  1.228E-03 1.591E-02

     total cpu time spent up to now is    11716.5 secs

     total energy              =    -951.81246299 Ry
     Harris-Foulkes estimate   =    -951.81246187 Ry
     estimated scf accuracy    <       0.00008473 Ry

     total magnetization       =    -0.00 Bohr mag/cell
     absolute magnetization    =     0.06 Bohr mag/cell

     iteration #108     ecut=    70.00 Ry     beta= 0.70
     Davidson diagonalization with overlap
     ethr =  1.06E-09,  avg # of iterations =  3.0

     negative rho (up, down):  1.230E-03 1.883E-02

     total cpu time spent up to now is    11828.3 secs

     total energy              =    -951.81246193 Ry
     Harris-Foulkes estimate   =    -951.81246437 Ry
     estimated scf accuracy    <       0.00009922 Ry

     total magnetization       =    -0.00 Bohr mag/cell
     absolute magnetization    =     0.06 Bohr mag/cell

     iteration #109     ecut=    70.00 Ry     beta= 0.70
     Davidson diagonalization with overlap
     ethr =  1.06E-09,  avg # of iterations =  3.0

     negative rho (up, down):  1.236E-03 2.190E-02

     total cpu time spent up to now is    11946.8 secs

     total energy              =    -951.81246649 Ry
     Harris-Foulkes estimate   =    -951.81246715 Ry
     estimated scf accuracy    <       0.00022303 Ry

     total magnetization       =    -0.00 Bohr mag/cell
     absolute magnetization    =     0.06 Bohr mag/cell

     iteration #110     ecut=    70.00 Ry     beta= 0.70
     Davidson diagonalization with overlap
     ethr =  1.06E-09,  avg # of iterations =  3.0

     negative rho (up, down):  1.249E-03 3.724E-02

     total cpu time spent up to now is    12062.7 secs

     total energy              =    -951.81234745 Ry
     Harris-Foulkes estimate   =    -951.81237747 Ry
     estimated scf accuracy    <       0.00053813 Ry

     total magnetization       =     0.07 Bohr mag/cell
     absolute magnetization    =     0.13 Bohr mag/cell

     iteration #111     ecut=    70.00 Ry     beta= 0.70
     Davidson diagonalization with overlap
     ethr =  1.06E-09,  avg # of iterations =  3.0

     negative rho (up, down):  1.235E-03 1.818E-02

     total cpu time spent up to now is    12183.5 secs

     total energy              =    -951.81236652 Ry
     Harris-Foulkes estimate   =    -951.81235170 Ry
     estimated scf accuracy    <       0.00005501 Ry

     total magnetization       =     0.10 Bohr mag/cell
     absolute magnetization    =     0.13 Bohr mag/cell

[...]
     ethr =  9.79E-10,  avg # of iterations =  3.0

     negative rho (up, down):  1.228E-03 1.757E-02

     total cpu time spent up to now is    32991.8 secs

     total energy              =    -951.81237250 Ry
     Harris-Foulkes estimate   =    -951.81236981 Ry
     estimated scf accuracy    <       0.00006477 Ry

     total magnetization       =    -0.13 Bohr mag/cell
     absolute magnetization    =     0.15 Bohr mag/cell

     iteration #272     ecut=    70.00 Ry     beta= 0.70
     Davidson diagonalization with overlap
     ethr =  9.79E-10,  avg # of iterations =  1.5

     negative rho (up, down):  1.226E-03 1.583E-02

     total cpu time spent up to now is    33088.7 secs

     total energy              =    -951.81233642 Ry
     Harris-Foulkes estimate   =    -951.81237205 Ry
     estimated scf accuracy    <       0.00004296 Ry

     total magnetization       =    -0.11 Bohr mag/cell
     absolute magnetization    =     0.13 Bohr mag/cell

     iteration #273     ecut=    70.00 Ry     beta= 0.70
     Davidson diagonalization with overlap
     ethr =  9.79E-10,  avg # of iterations =  4.0

     negative rho (up, down):  1.225E-03 9.993E-03

     total cpu time spent up to now is    33226.9 secs

     total energy              =    -951.81233544 Ry
     Harris-Foulkes estimate   =    -951.81232641 Ry
     estimated scf accuracy    <       0.00001262 Ry

     total magnetization       =    -0.07 Bohr mag/cell
     absolute magnetization    =     0.08 Bohr mag/cell

     iteration #274     ecut=    70.00 Ry     beta= 0.70
     Davidson diagonalization with overlap
     ethr =  9.79E-10,  avg # of iterations =  3.0

     negative rho (up, down):  1.225E-03 9.778E-03

     total cpu time spent up to now is    33334.8 secs

     total energy              =    -951.81234040 Ry
     Harris-Foulkes estimate   =    -951.81234180 Ry
     estimated scf accuracy    <       0.00002851 Ry

     total magnetization       =    -0.15 Bohr mag/cell
     absolute magnetization    =     0.16 Bohr mag/cell

     iteration #275     ecut=    70.00 Ry     beta= 0.70
     Davidson diagonalization with overlap
     ethr =  9.79E-10,  avg # of iterations =  1.0

     negative rho (up, down):  1.225E-03 9.141E-03

     total cpu time spent up to now is    33430.6 secs

     total energy              =    -951.81234481 Ry
     Harris-Foulkes estimate   =    -951.81234044 Ry
     estimated scf accuracy    <       0.00002596 Ry

     total magnetization       =    -0.14 Bohr mag/cell
     absolute magnetization    =     0.15 Bohr mag/cell

     iteration #276     ecut=    70.00 Ry     beta= 0.70
     Davidson diagonalization with overlap
     ethr =  9.79E-10,  avg # of iterations =  1.0

     negative rho (up, down):  1.226E-03 9.783E-03

     total cpu time spent up to now is    33526.8 secs

     total energy              =    -951.81239734 Ry
     Harris-Foulkes estimate   =    -951.81234510 Ry
     estimated scf accuracy    <       0.00003044 Ry

     total magnetization       =    -0.16 Bohr mag/cell
     absolute magnetization    =     0.17 Bohr mag/cell

     iteration #277     ecut=    70.00 Ry     beta= 0.70
     Davidson diagonalization with overlap
     ethr =  9.79E-10,  avg # of iterations =  4.0

     negative rho (up, down):  1.230E-03 1.468E-02

     total cpu time spent up to now is    33676.2 secs

     total energy              =    -951.81246778 Ry
     Harris-Foulkes estimate   =    -951.81244548 Ry
     estimated scf accuracy    <       0.00015421 Ry

     total magnetization       =    -0.00 Bohr mag/cell
     absolute magnetization    =     0.07 Bohr mag/cell

     iteration #278     ecut=    70.00 Ry     beta= 0.70
     Davidson diagonalization with overlap
     ethr =  9.79E-10,  avg # of iterations =  4.0

     negative rho (up, down):  1.231E-03 2.248E-02

     total cpu time spent up to now is    33813.4 secs

     total energy              =    -951.81247199 Ry
     Harris-Foulkes estimate   =    -951.81247128 Ry
     estimated scf accuracy    <       0.00019648 Ry

     total magnetization       =     0.00 Bohr mag/cell
     absolute magnetization    =     0.06 Bohr mag/cell

     iteration #279     ecut=    70.00 Ry     beta= 0.70
     Davidson diagonalization with overlap
     ethr =  9.79E-10,  avg # of iterations =  3.5

     negative rho (up, down):  1.227E-03 1.593E-02

     total cpu time spent up to now is    33952.6 secs

     total energy              =    -951.81233606 Ry
     Harris-Foulkes estimate   =    -951.81233160 Ry
     estimated scf accuracy    <       0.00007975 Ry

     total magnetization       =    -0.14 Bohr mag/cell
     absolute magnetization    =     0.15 Bohr mag/cell

     iteration #280     ecut=    70.00 Ry     beta= 0.70
     Davidson diagonalization with overlap
     ethr =  9.79E-10,  avg # of iterations =  2.0

     negative rho (up, down):  1.226E-03 1.253E-02

     total cpu time spent up to now is    34057.8 secs

     total energy              =    -951.81232426 Ry
     Harris-Foulkes estimate   =    -951.81233657 Ry
     estimated scf accuracy    <       0.00003285 Ry

     total magnetization       =    -0.14 Bohr mag/cell
     absolute magnetization    =     0.15 Bohr mag/cell

     iteration #281     ecut=    70.00 Ry     beta= 0.70
     Davidson diagonalization with overlap
     ethr =  9.79E-10,  avg # of iterations =  3.0

     negative rho (up, down):  1.226E-03 7.309E-03

     total cpu time spent up to now is    34161.5 secs

     total energy              =    -951.81233965 Ry
     Harris-Foulkes estimate   =    -951.81232783 Ry
     estimated scf accuracy    <       0.00000807 Ry

     total magnetization       =    -0.07 Bohr mag/cell
     absolute magnetization    =     0.08 Bohr mag/cell

     iteration #282     ecut=    70.00 Ry     beta= 0.70
     Davidson diagonalization with overlap
     ethr =  9.79E-10,  avg # of iterations =  3.0

     negative rho (up, down):  1.227E-03 1.469E-02

     total cpu time spent up to now is    34290.3 secs

     total energy              =    -951.81231427 Ry
     Harris-Foulkes estimate   =    -951.81235600 Ry
     estimated scf accuracy    <       0.00007015 Ry

     total magnetization       =    -0.17 Bohr mag/cell
     absolute magnetization    =     0.18 Bohr mag/cell

     iteration #283     ecut=    70.00 Ry     beta= 0.70
     Davidson diagonalization with overlap
     ethr =  9.79E-10,  avg # of iterations =  3.0

     negative rho (up, down):  1.229E-03 1.367E-02

     total cpu time spent up to now is    34421.2 secs

     total energy              =    -951.81232032 Ry
     Harris-Foulkes estimate   =    -951.81232644 Ry
     estimated scf accuracy    <       0.00004737 Ry

     total magnetization       =    -0.06 Bohr mag/cell
     absolute magnetization    =     0.07 Bohr mag/cell

     iteration #284     ecut=    70.00 Ry     beta= 0.70
     Davidson diagonalization with overlap
     ethr =  9.79E-10,  avg # of iterations =  2.5

     negative rho (up, down):  1.226E-03 8.139E-05

     Magnetic moment per site:
     atom:    1    charge:    0.2172    magn:    0.0000    constr:    0.0000
     atom:    2    charge:    0.2165    magn:    0.0000    constr:    0.0000
     atom:    3    charge:    1.7155    magn:   -0.0000    constr:    0.0000
     atom:    4    charge:    1.7152    magn:    0.0000    constr:    0.0000
     atom:    5    charge:    1.7168    magn:   -0.0000    constr:    0.0000
     atom:    6    charge:    1.7145    magn:    0.0000    constr:    0.0000
     atom:    7    charge:    1.7169    magn:   -0.0000    constr:    0.0000
     atom:    8    charge:    1.7152    magn:    0.0000    constr:    0.0000
     atom:    9    charge:    1.7155    magn:   -0.0000    constr:    0.0000
     atom:   10    charge:    1.7177    magn:    0.0000    constr:    0.0000
     atom:   11    charge:    1.7155    magn:   -0.0000    constr:    0.0000
     atom:   12    charge:    1.7177    magn:    0.0000    constr:    0.0000
     atom:   13    charge:    1.7156    magn:   -0.0000    constr:    0.0000
     atom:   14    charge:    1.7174    magn:    0.0000    constr:    0.0000
     atom:   15    charge:    1.7119    magn:   -0.0000    constr:    0.0000
     atom:   16    charge:    1.7113    magn:    0.0000    constr:    0.0000
     atom:   17    charge:    1.7211    magn:    0.0000    constr:    0.0000
     atom:   18    charge:    1.7114    magn:    0.0000    constr:    0.0000
     atom:   19    charge:    1.7119    magn:   -0.0000    constr:    0.0000
     atom:   20    charge:    1.7174    magn:    0.0000    constr:    0.0000
     atom:   21    charge:    1.7156    magn:   -0.0000    constr:    0.0000
     atom:   22    charge:    1.7174    magn:    0.0000    constr:    0.0000
     atom:   23    charge:    1.7156    magn:   -0.0000    constr:    0.0000
     atom:   24    charge:    1.7151    magn:    0.0000    constr:    0.0000
     atom:   25    charge:    1.7119    magn:   -0.0000    constr:    0.0000
     atom:   26    charge:    1.7108    magn:    0.0000    constr:    0.0000
     atom:   27    charge:    1.8212    magn:    0.0000    constr:    0.0000
     atom:   28    charge:   13.4114    magn:    0.0000    constr:    0.0000
     atom:   29    charge:    1.8216    magn:    0.0000    constr:    0.0000
     atom:   30    charge:    1.7109    magn:    0.0000    constr:    0.0000
     atom:   31    charge:    1.7119    magn:   -0.0000    constr:    0.0000
     atom:   32    charge:    1.7151    magn:    0.0000    constr:    0.0000
     atom:   33    charge:    1.7169    magn:   -0.0000    constr:    0.0000
     atom:   34    charge:    1.7153    magn:    0.0000    constr:    0.0000
     atom:   35    charge:    1.7169    magn:   -0.0000    constr:    0.0000
     atom:   36    charge:    1.7147    magn:    0.0000    constr:    0.0000
     atom:   37    charge:    1.7206    magn:    0.0000    constr:    0.0000
     atom:   38    charge:    1.7129    magn:    0.0000    constr:    0.0000
     atom:   39    charge:    1.8252    magn:    0.0001    constr:    0.0000
     atom:   40    charge:    1.7126    magn:    0.0000    constr:    0.0000
     atom:   41    charge:    1.7206    magn:    0.0000    constr:    0.0000
     atom:   42    charge:    1.7146    magn:    0.0000    constr:    0.0000
     atom:   43    charge:    1.7168    magn:   -0.0000    constr:    0.0000
     atom:   44    charge:    1.7153    magn:    0.0000    constr:    0.0000
     atom:   45    charge:    1.7216    magn:    0.0001    constr:    0.0000
     atom:   46    charge:    1.7153    magn:    0.0000    constr:    0.0000
     atom:   47    charge:    1.7167    magn:   -0.0000    constr:    0.0000
     atom:   48    charge:    1.7153    magn:    0.0000    constr:    0.0000
     atom:   49    charge:    1.7115    magn:   -0.0000    constr:    0.0000
     atom:   50    charge:    1.7177    magn:    0.0000    constr:    0.0000
     atom:   51    charge:    1.7115    magn:   -0.0000    constr:    0.0000
     atom:   52    charge:    1.7153    magn:    0.0000    constr:    0.0000

     total cpu time spent up to now is    34527.6 secs

     End of self-consistent calculation

 ------ SPIN UP ------------


          k = 0.0000 0.0000 0.0000 ( 87777 PWs)   bands (ev):

  -107.8656 -69.0654 -69.0041 -66.9632 -19.8192 -19.0030 -18.9969 -18.8803
   -18.8766 -18.7933 -18.7317 -17.1609 -17.1475 -17.1188 -17.0752 -17.0680
   -16.7457 -16.3058 -16.2995 -16.1586 -16.1561 -16.1412 -15.6694 -14.3116
   -14.2936 -14.1391 -14.0084 -14.0034 -13.5060 -13.1201 -13.1189 -13.0672
   -12.8943 -12.8918 -12.4973 -12.0638 -12.0611 -11.7021 -11.5640 -11.5582
   -10.9337 -10.4154 -10.4118  -9.5656  -9.3579  -9.3543  -9.2160  -9.2009
    -9.2007  -9.1857  -8.9564  -8.9392  -8.6579  -8.5793  -8.5530  -8.4411
    -7.9111  -7.8904  -7.8445  -7.6526  -7.5332  -7.5310  -7.4393  -7.4341
    -7.3886  -6.8339  -6.8143  -6.8123  -6.7372  -6.6128  -6.6057  -6.5444
    -6.5406  -6.5394  -6.5097  -6.4544  -6.4165  -6.4020  -6.2747  -6.2723
    -6.0838  -5.5365  -5.5318  -5.0206  -4.9389  -4.8322  -4.8282  -4.7514
    -4.7149  -4.7086  -4.3926  -4.3891  -4.3697  -3.8347  -3.8301  -3.7549
    -3.7483  -3.7480  -3.4958  -3.4079  -3.4029  -2.8652  -1.8866  -1.7992
    -1.7946  -1.5933  -1.5770  -1.0365   0.1017   0.1224   0.9080   0.9634
     0.9703   1.2008   1.2226   1.5818   2.4985   2.7918   2.8115   2.8605
     3.0002   3.0410   3.3903   3.5672   3.6468   3.7470   3.7501   3.7760
     3.9434   4.2096

     occupation numbers 
     1.0000   1.0000   1.0000   1.0000   1.0000   1.0000   1.0000   1.0000
     1.0000   1.0000   1.0000   1.0000   1.0000   1.0000   1.0000   1.0000
     1.0000   1.0000   1.0000   1.0000   1.0000   1.0000   1.0000   1.0000
     1.0000   1.0000   1.0000   1.0000   1.0000   1.0000   1.0000   1.0000
     1.0000   1.0000   1.0000   1.0000   1.0000   1.0000   1.0000   1.0000
     1.0000   1.0000   1.0000   1.0000   1.0000   1.0000   1.0000   1.0000
     1.0000   1.0000   1.0000   1.0000   1.0000   1.0000   1.0000   1.0000
     1.0000   1.0000   1.0000   1.0000   1.0000   1.0000   1.0000   1.0000
     1.0000   1.0000   1.0000   1.0000   1.0000   1.0000   1.0000   1.0000
     1.0000   1.0000   1.0000   1.0000   1.0000   1.0000   1.0000   1.0000
     1.0000   1.0000   1.0000   1.0000   1.0000   1.0000   1.0000   1.0000
     1.0000   1.0000   1.0000   1.0000   1.0000   1.0000   1.0000   1.0000
     1.0000   1.0000   1.0000   1.0000   1.0000   1.0000   1.0000   1.0000
     1.0000   1.0000   1.0000   1.0013   0.0000   0.0000   0.0000   0.0000
     0.0000   0.0000   0.0000   0.0000   0.0000   0.0000   0.0000   0.0000
     0.0000   0.0000   0.0000   0.0000   0.0000   0.0000   0.0000   0.0000
     0.0000   0.0000

 ------ SPIN DOWN ----------


          k = 0.0000 0.0000 0.0000 ( 87777 PWs)   bands (ev):

  -107.8656 -69.0654 -69.0041 -66.9633 -19.8192 -19.0030 -18.9969 -18.8802
   -18.8766 -18.7932 -18.7316 -17.1608 -17.1475 -17.1188 -17.0751 -17.0679
   -16.7456 -16.3057 -16.2995 -16.1586 -16.1561 -16.1412 -15.6694 -14.3116
   -14.2936 -14.1391 -14.0084 -14.0034 -13.5060 -13.1201 -13.1189 -13.0672
   -12.8942 -12.8918 -12.4973 -12.0638 -12.0610 -11.7021 -11.5639 -11.5581
   -10.9336 -10.4154 -10.4118  -9.5656  -9.3578  -9.3543  -9.2160  -9.2009
    -9.2007  -9.1857  -8.9564  -8.9392  -8.6578  -8.5793  -8.5529  -8.4411
    -7.9110  -7.8904  -7.8444  -7.6526  -7.5332  -7.5310  -7.4393  -7.4341
    -7.3886  -6.8339  -6.8142  -6.8122  -6.7371  -6.6128  -6.6057  -6.5444
    -6.5405  -6.5394  -6.5097  -6.4544  -6.4164  -6.4020  -6.2747  -6.2723
    -6.0837  -5.5365  -5.5318  -5.0206  -4.9389  -4.8322  -4.8282  -4.7514
    -4.7149  -4.7085  -4.3926  -4.3891  -4.3696  -3.8347  -3.8301  -3.7548
    -3.7483  -3.7480  -3.4957  -3.4078  -3.4028  -2.8651  -1.8866  -1.7991
    -1.7945  -1.5932  -1.5769  -1.0364   0.1017   0.1224   0.9080   0.9635
     0.9704   1.2009   1.2227   1.5819   2.4988   2.7918   2.8115   2.8606
     3.0003   3.0411   3.3905   3.5675   3.6472   3.7472   3.7505   3.7764
     3.9438   4.2102

     occupation numbers 
     1.0000   1.0000   1.0000   1.0000   1.0000   1.0000   1.0000   1.0000
     1.0000   1.0000   1.0000   1.0000   1.0000   1.0000   1.0000   1.0000
     1.0000   1.0000   1.0000   1.0000   1.0000   1.0000   1.0000   1.0000
     1.0000   1.0000   1.0000   1.0000   1.0000   1.0000   1.0000   1.0000
     1.0000   1.0000   1.0000   1.0000   1.0000   1.0000   1.0000   1.0000
     1.0000   1.0000   1.0000   1.0000   1.0000   1.0000   1.0000   1.0000
     1.0000   1.0000   1.0000   1.0000   1.0000   1.0000   1.0000   1.0000
     1.0000   1.0000   1.0000   1.0000   1.0000   1.0000   1.0000   1.0000
     1.0000   1.0000   1.0000   1.0000   1.0000   1.0000   1.0000   1.0000
     1.0000   1.0000   1.0000   1.0000   1.0000   1.0000   1.0000   1.0000
     1.0000   1.0000   1.0000   1.0000   1.0000   1.0000   1.0000   1.0000
     1.0000   1.0000   1.0000   1.0000   1.0000   1.0000   1.0000   1.0000
     1.0000   1.0000   1.0000   1.0000   1.0000   1.0000   1.0000   1.0000
     1.0000   1.0000   1.0000   0.9987   0.0000   0.0000   0.0000   0.0000
     0.0000   0.0000   0.0000   0.0000   0.0000   0.0000   0.0000   0.0000
     0.0000   0.0000   0.0000   0.0000   0.0000   0.0000   0.0000   0.0000
     0.0000   0.0000

     the Fermi energy is    -1.0239 ev

!    total energy              =    -951.81232616 Ry
     Harris-Foulkes estimate   =    -951.81232337 Ry
     estimated scf accuracy    <       0.00000047 Ry

     The total energy is the sum of the following terms:

     one-electron contribution =   -3008.25460282 Ry
     hartree contribution      =    1546.91607178 Ry
     xc contribution           =    -265.83587120 Ry
     ewald contribution        =     775.36191298 Ry
     smearing contrib. (-TS)   =       0.00016310 Ry

     total magnetization       =     0.00 Bohr mag/cell
     absolute magnetization    =     0.00 Bohr mag/cell

     convergence has been achieved in 284 iterations

     Writing output data file cobre-bridge-distance-2.0.save/

     init_run     :     77.44s CPU     78.79s WALL (       1 calls)
     electrons    :  33925.92s CPU  34447.79s WALL (       1 calls)

     Called by init_run:
     wfcinit      :     44.50s CPU     44.80s WALL (       1 calls)
     wfcinit:atom :      0.07s CPU      0.10s WALL (       2 calls)
     wfcinit:wfcr :     44.06s CPU     44.25s WALL (       2 calls)
     potinit      :     13.64s CPU     14.06s WALL (       1 calls)
     hinit0       :     10.34s CPU     10.38s WALL (       1 calls)

     Called by electrons:
     c_bands      :  23466.51s CPU  23580.26s WALL (     284 calls)
     sum_band     :   6075.83s CPU   6244.75s WALL (     284 calls)
     v_of_rho     :   2106.91s CPU   2197.63s WALL (     285 calls)
     v_h          :     22.98s CPU     23.68s WALL (     285 calls)
     v_xc         :   2083.93s CPU   2173.94s WALL (     285 calls)
     newd         :   2072.62s CPU   2218.26s WALL (     285 calls)
     mix_rho      :    148.41s CPU    150.60s WALL (     284 calls)

     Called by c_bands:
     init_us_2    :     55.60s CPU     55.73s WALL (    1138 calls)
     cegterg      :  23324.59s CPU  23437.62s WALL (     568 calls)

     Called by sum_band:
     sum_band:bec :      0.46s CPU      0.47s WALL (     568 calls)
     addusdens    :   3645.95s CPU   3801.81s WALL (     284 calls)

     Called by *egterg:
     h_psi        :  11424.03s CPU  11500.76s WALL (    2251 calls)
     s_psi        :   3871.94s CPU   3873.56s WALL (    2251 calls)
     g_psi        :     13.07s CPU     13.11s WALL (    1681 calls)
     cdiaghg      :    192.98s CPU    193.06s WALL (    2249 calls)
     cegterg:over :   3277.95s CPU   3279.32s WALL (    1681 calls)
     cegterg:upda :   2124.90s CPU   2134.46s WALL (    1681 calls)
     cegterg:last :   1432.71s CPU   1433.06s WALL (     609 calls)

     Called by h_psi:
     h_psi:pot    :  11410.35s CPU  11472.94s WALL (    2251 calls)
     h_psi:calbec :   3898.36s CPU   3900.00s WALL (    2251 calls)
     vloc_psi     :   3643.85s CPU   3703.71s WALL (    2251 calls)
     add_vuspsi   :   3868.10s CPU   3869.21s WALL (    2251 calls)

     General routines
     calbec       :   5377.20s CPU   5379.46s WALL (    2819 calls)
     fft          :   1278.13s CPU   1315.52s WALL (   21369 calls)
     ffts         :     21.58s CPU     22.23s WALL (    1138 calls)
     fftw         :   3788.52s CPU   3852.51s WALL (  464194 calls)
     interpolate  :     51.36s CPU     52.69s WALL (     570 calls)

     Parallel routines
     fft_scatt_xy :    902.73s CPU    913.93s WALL (  486701 calls)
     fft_scatt_yz :   1759.58s CPU   1834.25s WALL (  486701 calls)

     PWSCF        :      9h26m CPU      9h35m WALL


   This run was terminated on:  11: 6:12  13Jan2023            

=------------------------------------------------------------------------------=
   JOB DONE.
=------------------------------------------------------------------------------=
