
     Program PWSCF v.6.4.1 starts on  8Apr2023 at  9: 9:37 

     This program is part of the open-source Quantum ESPRESSO suite
     for quantum simulation of materials; please cite
         "P. Giannozzi et al., J. Phys.:Condens. Matter 21 395502 (2009);
         "P. Giannozzi et al., J. Phys.:Condens. Matter 29 465901 (2017);
          URL http://www.quantum-espresso.org", 
     in publications or presentations arising from this work. More details at
     http://www.quantum-espresso.org/quote

     Parallel version (MPI), running on     6 processors

     MPI processes distributed on     1 nodes
     R & G space division:  proc/nbgrp/npool/nimage =       6
     Reading input from ni-vcrelax-2.in

     Current dimensions of program PWSCF are:
     Max number of different atomic species (ntypx) = 10
     Max number of k-points (npk) =  40000
     Max angular momentum in pseudopotentials (lmaxx) =  3
               file H.pbe-rrkjus.UPF: wavefunction(s)  1S renormalized

     Subspace diagonalization in iterative solution of the eigenvalue problem:
     a serial algorithm will be used


     Parallelization info
     --------------------
     sticks:   dense  smooth     PW     G-vecs:    dense   smooth      PW
     Min        3051    1746    432               270999   117096   14629
     Max        3053    1747    437               271001   117099   14630
     Sum       18313   10477   2611              1626001   702581   87777



     bravais-lattice index     =            4
     lattice parameter (alat)  =      23.2937  a.u.
     unit-cell volume          =    8879.8548 (a.u.)^3
     number of atoms/cell      =           52
     number of atomic types    =            3
     number of electrons       =       216.00
     number of Kohn-Sham states=          130
     kinetic-energy cutoff     =      70.0000  Ry
     charge density cutoff     =     490.0000  Ry
     convergence threshold     =      1.0E-08
     mixing beta               =       0.7000
     number of iterations used =            8  plain     mixing
     Exchange-correlation      = PBE ( 1  4  3  4 0 0)
     nstep                     =           50


     celldm(1)=  23.293684  celldm(2)=   0.000000  celldm(3)=   0.811261
     celldm(4)=   0.000000  celldm(5)=   0.000000  celldm(6)=   0.000000

     crystal axes: (cart. coord. in units of alat)
               a(1) = (   1.000000   0.000000   0.000000 )  
               a(2) = (  -0.500000   0.866025   0.000000 )  
               a(3) = (   0.000000   0.000000   0.811261 )  

     reciprocal axes: (cart. coord. in units 2 pi/alat)
               b(1) = (  1.000000  0.577350 -0.000000 )  
               b(2) = (  0.000000  1.154701  0.000000 )  
               b(3) = (  0.000000 -0.000000  1.232649 )  


     PseudoPot. # 1 for H  read from file:
     /home/cristian/Escritorio/Proyecto_Grafeno/pseudopotenciales/H.pbe-rrkjus.UPF
     MD5 check sum: 7cc9d459525c9a0585f487a71c3c9563
     Pseudo is Ultrasoft, Zval =  1.0
     Generated by new atomic code, or converted to UPF format
     Using radial grid of 1061 points,  2 beta functions with: 
                l(1) =   0
                l(2) =   0
     Q(r) pseudized with 0 coefficients 


     PseudoPot. # 2 for C  read from file:
     /home/cristian/Escritorio/Proyecto_Grafeno/pseudopotenciales/C.pbe-n-rrkjus_psl.1.0.0.UPF
     MD5 check sum: 1fdd950c42eb37d8afe3dd2f8d12311e
     Pseudo is Ultrasoft + core correction, Zval =  4.0
     Generated using "atomic" code by A. Dal Corso v.6.3MaX
     Using radial grid of 1073 points,  4 beta functions with: 
                l(1) =   0
                l(2) =   0
                l(3) =   1
                l(4) =   1
     Q(r) pseudized with 0 coefficients 


     PseudoPot. # 3 for Ni read from file:
     /home/cristian/Escritorio/Proyecto_Grafeno/pseudopotenciales/Ni.pbe-spn-rrkjus_psl.1.0.0.UPF
     MD5 check sum: 8b3fc9aac6dafe35f580d41bb18c3945
     Pseudo is Ultrasoft + core correction, Zval = 18.0
     Generated using "atomic" code by A. Dal Corso v.6.3
     Using radial grid of 1195 points,  6 beta functions with: 
                l(1) =   0
                l(2) =   0
                l(3) =   1
                l(4) =   1
                l(5) =   2
                l(6) =   2
     Q(r) pseudized with 0 coefficients 


     atomic species   valence    mass     pseudopotential
        H              1.00     1.00794     H ( 1.00)
        C              4.00    12.01070     C ( 1.00)
        Ni            18.00    58.69340     Ni( 1.00)

     Starting magnetic structure 
     atomic species   magnetization
        H            0.500
        C            0.300
        Ni           1.000

     No symmetry found


                                    s                        frac. trans.

      isym =  1     identity                                     

 cryst.   s( 1) = (     1          0          0      )
                  (     0          1          0      )
                  (     0          0          1      )

 cart.    s( 1) = (  1.0000000  0.0000000  0.0000000 )
                  (  0.0000000  1.0000000  0.0000000 )
                  (  0.0000000  0.0000000  1.0000000 )


     point group C_1 (1)    
     there are  1 classes
     the character table:

       E    
A      1.00

     the symmetry operations in each class and the name of the first element:

     E        1
          identity                                               

   Cartesian axes

     site n.     atom                  positions (alat units)
         1           H   tau(   1) = (   0.3356602   0.3968440   0.2677685  )
         2           H   tau(   2) = (   0.2762971   0.4048895   0.2549792  )
         3           C   tau(   3) = (   0.0005114  -0.0002756   0.0006361  )
         4           C   tau(   4) = (   0.0001475   0.1138132   0.0000571  )
         5           C   tau(   5) = (  -0.0985650   0.1707719  -0.0001183  )
         6           C   tau(   6) = (  -0.1001710   0.2887993  -0.0002347  )
         7           C   tau(   7) = (  -0.2016532   0.3490923  -0.0002177  )
         8           C   tau(   8) = (  -0.2015039   0.4631427  -0.0007155  )
         9           C   tau(   9) = (  -0.3002153   0.5203083   0.0002940  )
        10           C   tau(  10) = (  -0.3001594   0.6341164   0.0001405  )
        11           C   tau(  11) = (  -0.3981128   0.6940393   0.0003062  )
        12           C   tau(  12) = (  -0.4010066   0.8088625   0.0002193  )
        13           C   tau(  13) = (   0.1998921  -0.0022554   0.0001418  )
        14           C   tau(  14) = (   0.1996996   0.1135440  -0.0005836  )
        15           C   tau(  15) = (   0.0977909   0.1690735  -0.0012998  )
        16           C   tau(  16) = (   0.0979667   0.2832088  -0.0011137  )
        17           C   tau(  17) = (  -0.0015941   0.3457683   0.0004201  )
        18           C   tau(  18) = (  -0.0055102   0.4636645   0.0021437  )
        19           C   tau(  19) = (  -0.1047772   0.5198650  -0.0017337  )
        20           C   tau(  20) = (  -0.1019213   0.6361109  -0.0009275  )
        21           C   tau(  21) = (  -0.2021715   0.6940607  -0.0001499  )
        22           C   tau(  22) = (  -0.1992922   0.8088619   0.0001761  )
        23           C   tau(  23) = (   0.3993023  -0.0001520   0.0001496  )
        24           C   tau(  24) = (   0.3993229   0.1138561  -0.0000346  )
        25           C   tau(  25) = (   0.3018091   0.1693555  -0.0008180  )
        26           C   tau(  26) = (   0.3007607   0.2832961   0.0015325  )
        27           C   tau(  27) = (   0.2000008   0.3247054   0.0023524  )
        28           Ni  tau(  28) = (   0.1980983   0.4631011  -0.0495470  )
        29           C   tau(  29) = (   0.0818897   0.5299844   0.0144707  )
        30           C   tau(  30) = (   0.0955775   0.6388359   0.0035807  )
        31           C   tau(  31) = (  -0.0025984   0.6967486  -0.0012286  )
        32           C   tau(  32) = (  -0.0019212   0.8088837  -0.0006240  )
        33           C   tau(  33) = (   0.5968146   0.0000133  -0.0000531  )
        34           C   tau(  34) = (   0.5996423   0.1156482  -0.0000800  )
        35           C   tau(  35) = (   0.4980344   0.1709862   0.0003638  )
        36           C   tau(  36) = (   0.4994399   0.2889695   0.0011954  )
        37           C   tau(  37) = (   0.4007927   0.3459784   0.0017581  )
        38           C   tau(  38) = (   0.4051725   0.4637854  -0.0001844  )
        39           C   tau(  39) = (   0.3196225   0.5309103  -0.0062561  )
        40           C   tau(  40) = (   0.3037644   0.6396718  -0.0018312  )
        41           C   tau(  41) = (   0.1997516   0.6944092   0.0010833  )
        42           C   tau(  42) = (   0.1997519   0.8082729   0.0001880  )
        43           C   tau(  43) = (   0.8027456  -0.0001395  -0.0000263  )
        44           C   tau(  44) = (   0.7997949   0.1155390  -0.0001873  )
        45           C   tau(  45) = (   0.6997165   0.1733260  -0.0001463  )
        46           C   tau(  46) = (   0.6996281   0.2887938  -0.0002284  )
        47           C   tau(  47) = (   0.6008678   0.3491712   0.0002728  )
        48           C   tau(  48) = (   0.6010918   0.4631793   0.0005373  )
        49           C   tau(  49) = (   0.5042765   0.5199747  -0.0000043  )
        50           C   tau(  50) = (   0.5015819   0.6363007   0.0000434  )
        51           C   tau(  51) = (   0.4024453   0.6968029  -0.0003444  )
        52           C   tau(  52) = (   0.4015114   0.8090359   0.0006345  )

   Crystallographic axes

     site n.     atom                  positions (cryst. coord.)
         1           H   tau(   1) = (  0.5647782  0.4582360  0.3300644  )
         2           H   tau(   2) = (  0.5100602  0.4675261  0.3142998  )
         3           C   tau(   3) = (  0.0003522 -0.0003183  0.0007841  )
         4           C   tau(   4) = (  0.0658575  0.1314201  0.0000704  )
         5           C   tau(   5) = (  0.0000303  0.1971904 -0.0001458  )
         6           C   tau(   6) = (  0.0665674  0.3334767 -0.0002892  )
         7           C   tau(   7) = ( -0.0001047  0.4030970 -0.0002684  )
         8           C   tau(   8) = (  0.0658917  0.5347912 -0.0008820  )
         9           C   tau(   9) = (  0.0001849  0.6008003  0.0003623  )
        10           C   tau(  10) = (  0.0659479  0.7322146  0.0001732  )
        11           C   tau(  11) = (  0.0025910  0.8014076  0.0003774  )
        12           C   tau(  12) = (  0.0659904  0.9339940  0.0002703  )
        13           C   tau(  13) = (  0.1985899 -0.0026043  0.0001748  )
        14           C   tau(  14) = (  0.2652543  0.1311093 -0.0007194  )
        15           C   tau(  15) = (  0.1954055  0.1952292 -0.0016022  )
        16           C   tau(  16) = (  0.2614774  0.3270214 -0.0013728  )
        17           C   tau(  17) = (  0.1980353  0.3992589  0.0005178  )
        18           C   tau(  18) = (  0.2621866  0.5353937  0.0026424  )
        19           C   tau(  19) = (  0.1953670  0.6002883 -0.0021371  )
        20           C   tau(  20) = (  0.2653375  0.7345176 -0.0011432  )
        21           C   tau(  21) = (  0.1985446  0.8014322 -0.0001848  )
        22           C   tau(  22) = (  0.2677045  0.9339932  0.0002171  )
        23           C   tau(  23) = (  0.3992145 -0.0001755  0.0001844  )
        24           C   tau(  24) = (  0.4650577  0.1314697 -0.0000427  )
        25           C   tau(  25) = (  0.3995865  0.1955549 -0.0010083  )
        26           C   tau(  26) = (  0.4643217  0.3271222  0.0018891  )
        27           C   tau(  27) = (  0.3874696  0.3749375  0.0028997  )
        28           Ni  tau(  28) = (  0.4654699  0.5347430 -0.0610740  )
        29           C   tau(  29) = (  0.3878763  0.6119733  0.0178372  )
        30           C   tau(  30) = (  0.4644096  0.7376642  0.0044138  )
        31           C   tau(  31) = (  0.3996696  0.8045360 -0.0015144  )
        32           C   tau(  32) = (  0.4650880  0.9340184 -0.0007692  )
        33           C   tau(  33) = (  0.5968222  0.0000154 -0.0000654  )
        34           C   tau(  34) = (  0.6664119  0.1335391 -0.0000986  )
        35           C   tau(  35) = (  0.5967534  0.1974378  0.0004485  )
        36           C   tau(  36) = (  0.6662765  0.3336732  0.0014735  )
        37           C   tau(  37) = (  0.6005434  0.3995015  0.0021671  )
        38           C   tau(  38) = (  0.6729392  0.5355333 -0.0002274  )
        39           C   tau(  39) = (  0.6261437  0.6130424 -0.0077115  )
        40           C   tau(  40) = (  0.6730790  0.7386294 -0.0022572  )
        41           C   tau(  41) = (  0.6006689  0.8018347  0.0013354  )
        42           C   tau(  42) = (  0.6664084  0.9333131  0.0002318  )
        43           C   tau(  43) = (  0.8026650 -0.0001611 -0.0000324  )
        44           C   tau(  44) = (  0.8665013  0.1334129 -0.0002308  )
        45           C   tau(  45) = (  0.7997863  0.2001396 -0.0001804  )
        46           C   tau(  46) = (  0.8663633  0.3334704 -0.0002816  )
        47           C   tau(  47) = (  0.8024619  0.4031882  0.0003362  )
        48           C   tau(  48) = (  0.8685085  0.5348333  0.0006623  )
        49           C   tau(  49) = (  0.8044840  0.6004151 -0.0000053  )
        50           C   tau(  50) = (  0.8689503  0.7347368  0.0000535  )
        51           C   tau(  51) = (  0.8047446  0.8045987 -0.0004245  )
        52           C   tau(  52) = (  0.8686085  0.9341942  0.0007821  )

     number of k points=     1  Marzari-Vanderbilt smearing, width (Ry)=  0.0010
                       cart. coord. in units 2pi/alat
        k(    1) = (   0.0000000   0.0000000   0.0000000), wk =   1.0000000

                       cryst. coord.
        k(    1) = (   0.0000000   0.0000000   0.0000000), wk =   1.0000000

     Dense  grid:  1626001 G-vectors     FFT dimensions: ( 180, 180, 135)

     Smooth grid:   702581 G-vectors     FFT dimensions: ( 125, 125, 108)

     Dynamical RAM for                 wfc:      29.03 MB

     Dynamical RAM for     wfc (w. buffer):      87.10 MB

     Dynamical RAM for           str. fact:      12.41 MB

     Dynamical RAM for           local pot:       0.00 MB

     Dynamical RAM for          nlocal pot:      92.46 MB

     Dynamical RAM for                qrad:      19.73 MB

     Dynamical RAM for          rho,v,vnew:      58.92 MB

     Dynamical RAM for               rhoin:      19.64 MB

     Dynamical RAM for            rho*nmix:     132.32 MB

     Dynamical RAM for           G-vectors:      16.40 MB

     Dynamical RAM for          h,s,v(r/c):      12.38 MB

     Dynamical RAM for          <psi|beta>:       0.82 MB

     Dynamical RAM for                 psi:     116.14 MB

     Dynamical RAM for                hpsi:     116.14 MB

     Dynamical RAM for                spsi:     116.14 MB

     Dynamical RAM for      wfcinit/wfcrot:      93.90 MB

     Dynamical RAM for           addusdens:     975.89 MB

     Dynamical RAM for          addusforce:    1410.48 MB

     Estimated static dynamical RAM per process >     489.64 MB

     Estimated max dynamical RAM per process >       1.86 GB

     Estimated total dynamical RAM >      11.13 GB
     Generating pointlists ...
     new r_m :   0.0253 (alat units)  0.5886 (a.u.) for type    1
     new r_m :   0.0449 (alat units)  1.0465 (a.u.) for type    2
     new r_m :   0.0601 (alat units)  1.4004 (a.u.) for type    3

     Check: negative core charge=   -0.000002

     Initial potential from superposition of free atoms

     starting charge  215.80530, renormalised to  216.00000

     negative rho (up, down):  1.328E-04 1.662E-02
     Starting wfcs are  208 randomized atomic wfcs

     total cpu time spent up to now is       74.1 secs

     Self-consistent Calculation

     iteration #  1     ecut=    70.00 Ry     beta= 0.70
     Davidson diagonalization with overlap
     ethr =  1.00E-02,  avg # of iterations =  7.0

     negative rho (up, down):  2.487E-04 1.520E-02

     total cpu time spent up to now is      228.2 secs

     total energy              =    -942.12547191 Ry
     Harris-Foulkes estimate   =    -945.44229285 Ry
     estimated scf accuracy    <      20.30918535 Ry

     total magnetization       =     8.00 Bohr mag/cell
     absolute magnetization    =     8.50 Bohr mag/cell

     iteration #  2     ecut=    70.00 Ry     beta= 0.70
     Davidson diagonalization with overlap
     ethr =  9.40E-03,  avg # of iterations =  4.0

     negative rho (up, down):  6.651E-02 3.486E-01

     total cpu time spent up to now is      396.7 secs

     total energy              =    -952.29111491 Ry
     Harris-Foulkes estimate   =    -963.50331341 Ry
     estimated scf accuracy    <     123.45537120 Ry

     total magnetization       =     6.00 Bohr mag/cell
     absolute magnetization    =    15.71 Bohr mag/cell

     iteration #  3     ecut=    70.00 Ry     beta= 0.70
     Davidson diagonalization with overlap
     ethr =  9.40E-03,  avg # of iterations =  3.5

     negative rho (up, down):  2.366E-02 5.371E-01

     total cpu time spent up to now is      521.8 secs

     total energy              =    -948.84887928 Ry
     Harris-Foulkes estimate   =    -966.06982159 Ry
     estimated scf accuracy    <     768.46190075 Ry

     total magnetization       =     0.00 Bohr mag/cell
     absolute magnetization    =    41.15 Bohr mag/cell

     iteration #  4     ecut=    70.00 Ry     beta= 0.70
     Davidson diagonalization with overlap
     ethr =  9.40E-03,  avg # of iterations =  3.0

     negative rho (up, down):  4.713E-02 5.139E-01

     total cpu time spent up to now is      647.2 secs

     total energy              =    -948.47743383 Ry
     Harris-Foulkes estimate   =    -953.78974324 Ry
     estimated scf accuracy    <     190.21029966 Ry

     total magnetization       =     2.00 Bohr mag/cell
     absolute magnetization    =    20.99 Bohr mag/cell

     iteration #  5     ecut=    70.00 Ry     beta= 0.70
     Davidson diagonalization with overlap
     ethr =  9.40E-03,  avg # of iterations =  3.0

     negative rho (up, down):  1.239E-01 4.909E-01

     total cpu time spent up to now is      765.7 secs

     total energy              =    -943.00073120 Ry
     Harris-Foulkes estimate   =    -961.49354014 Ry
     estimated scf accuracy    <     661.82478720 Ry

     total magnetization       =     2.00 Bohr mag/cell
     absolute magnetization    =    38.81 Bohr mag/cell

     iteration #  6     ecut=    70.00 Ry     beta= 0.70
     Davidson diagonalization with overlap
     ethr =  9.40E-03,  avg # of iterations =  2.0

     negative rho (up, down):  1.425E-01 3.961E-01

     total cpu time spent up to now is      888.3 secs

     total energy              =    -949.07932086 Ry
     Harris-Foulkes estimate   =    -951.04841372 Ry
     estimated scf accuracy    <      97.70341859 Ry

     total magnetization       =     3.84 Bohr mag/cell
     absolute magnetization    =    16.20 Bohr mag/cell

     iteration #  7     ecut=    70.00 Ry     beta= 0.70
     Davidson diagonalization with overlap
     ethr =  9.40E-03,  avg # of iterations =  2.0

     negative rho (up, down):  4.841E-02 4.572E-01

     total cpu time spent up to now is     1007.1 secs

     total energy              =    -953.76091630 Ry
     Harris-Foulkes estimate   =    -952.86633848 Ry
     estimated scf accuracy    <     208.92053335 Ry

     total magnetization       =     2.00 Bohr mag/cell
     absolute magnetization    =    22.37 Bohr mag/cell

     iteration #  8     ecut=    70.00 Ry     beta= 0.70
     Davidson diagonalization with overlap
     ethr =  9.40E-03,  avg # of iterations =  2.5

     negative rho (up, down):  1.923E-01 4.664E-01

     total cpu time spent up to now is     1126.1 secs

     total energy              =    -945.84818235 Ry
     Harris-Foulkes estimate   =    -956.14107252 Ry
     estimated scf accuracy    <     393.73303758 Ry

     total magnetization       =     2.00 Bohr mag/cell
     absolute magnetization    =    29.86 Bohr mag/cell

     iteration #  9     ecut=    70.00 Ry     beta= 0.70
     Davidson diagonalization with overlap
     ethr =  9.40E-03,  avg # of iterations =  2.5

     negative rho (up, down):  4.376E-01 2.884E-01

     total cpu time spent up to now is     1240.7 secs

     total energy              =    -952.57052577 Ry
     Harris-Foulkes estimate   =    -953.36679655 Ry
     estimated scf accuracy    <     191.78702848 Ry

     total magnetization       =     2.00 Bohr mag/cell
     absolute magnetization    =    17.11 Bohr mag/cell

     iteration # 10     ecut=    70.00 Ry     beta= 0.70
     Davidson diagonalization with overlap
     ethr =  9.40E-03,  avg # of iterations =  2.0

     negative rho (up, down):  3.201E-01 4.697E-01

     total cpu time spent up to now is     1328.7 secs

     total energy              =    -943.41619233 Ry
     Harris-Foulkes estimate   =    -955.11616630 Ry
     estimated scf accuracy    <     302.06430233 Ry

     total magnetization       =     2.00 Bohr mag/cell
     absolute magnetization    =    26.40 Bohr mag/cell

     iteration # 11     ecut=    70.00 Ry     beta= 0.70
     Davidson diagonalization with overlap
     ethr =  9.40E-03,  avg # of iterations =  2.5

     negative rho (up, down):  8.678E-02 2.642E-01

     total cpu time spent up to now is     1415.9 secs

     total energy              =    -950.93187368 Ry
     Harris-Foulkes estimate   =    -950.56295141 Ry
     estimated scf accuracy    <      25.94508765 Ry

     total magnetization       =    -0.00 Bohr mag/cell
     absolute magnetization    =     8.27 Bohr mag/cell

     iteration # 12     ecut=    70.00 Ry     beta= 0.70
     Davidson diagonalization with overlap
     ethr =  9.40E-03,  avg # of iterations =  2.0

     negative rho (up, down):  3.247E-02 4.526E-01

     total cpu time spent up to now is     1501.3 secs

     total energy              =    -948.81347026 Ry
     Harris-Foulkes estimate   =    -951.82775712 Ry
     estimated scf accuracy    <     106.92203745 Ry

     total magnetization       =     0.00 Bohr mag/cell
     absolute magnetization    =    15.60 Bohr mag/cell

     iteration # 13     ecut=    70.00 Ry     beta= 0.70
     Davidson diagonalization with overlap
     ethr =  9.40E-03,  avg # of iterations =  2.0

     negative rho (up, down):  3.550E-02 3.813E-01

     total cpu time spent up to now is     1585.7 secs

     total energy              =    -949.69289812 Ry
     Harris-Foulkes estimate   =    -950.61966796 Ry
     estimated scf accuracy    <       7.25761353 Ry

     total magnetization       =     0.00 Bohr mag/cell
     absolute magnetization    =     1.81 Bohr mag/cell

     iteration # 14     ecut=    70.00 Ry     beta= 0.70
     Davidson diagonalization with overlap
     ethr =  3.36E-03,  avg # of iterations =  2.0

     negative rho (up, down):  5.468E-02 1.783E-01

     total cpu time spent up to now is     1669.3 secs

     total energy              =    -949.96761548 Ry
     Harris-Foulkes estimate   =    -950.43401781 Ry
     estimated scf accuracy    <       4.32868767 Ry

     total magnetization       =    -0.00 Bohr mag/cell
     absolute magnetization    =     2.09 Bohr mag/cell

     iteration # 15     ecut=    70.00 Ry     beta= 0.70
     Davidson diagonalization with overlap
     ethr =  2.00E-03,  avg # of iterations =  2.0

     negative rho (up, down):  2.671E-02 2.315E-01

     total cpu time spent up to now is     1754.8 secs

     total energy              =    -950.76182344 Ry
     Harris-Foulkes estimate   =    -950.47471552 Ry
     estimated scf accuracy    <       6.22189217 Ry

     total magnetization       =    -0.00 Bohr mag/cell
     absolute magnetization    =     3.60 Bohr mag/cell

     iteration # 16     ecut=    70.00 Ry     beta= 0.70
     Davidson diagonalization with overlap
     ethr =  2.00E-03,  avg # of iterations =  2.0

     negative rho (up, down):  5.671E-02 3.769E-01

     total cpu time spent up to now is     1842.6 secs

     total energy              =    -950.04552776 Ry
     Harris-Foulkes estimate   =    -951.13394105 Ry
     estimated scf accuracy    <      43.75297019 Ry

     total magnetization       =    -0.00 Bohr mag/cell
     absolute magnetization    =     9.82 Bohr mag/cell

     iteration # 17     ecut=    70.00 Ry     beta= 0.70
     Davidson diagonalization with overlap
     ethr =  2.00E-03,  avg # of iterations =  2.0

     negative rho (up, down):  1.460E-02 3.728E-01

     total cpu time spent up to now is     1929.3 secs

     total energy              =    -950.18550034 Ry
     Harris-Foulkes estimate   =    -950.43159859 Ry
     estimated scf accuracy    <       4.28493951 Ry

     total magnetization       =    -0.00 Bohr mag/cell
     absolute magnetization    =     3.16 Bohr mag/cell

     iteration # 18     ecut=    70.00 Ry     beta= 0.70
     Davidson diagonalization with overlap
     ethr =  1.98E-03,  avg # of iterations =  2.0

     negative rho (up, down):  5.782E-03 3.098E-01

     total cpu time spent up to now is     2012.1 secs

     total energy              =    -950.34075785 Ry
     Harris-Foulkes estimate   =    -950.31527528 Ry
     estimated scf accuracy    <       0.19618682 Ry

     total magnetization       =    -0.00 Bohr mag/cell
     absolute magnetization    =     0.88 Bohr mag/cell

     iteration # 19     ecut=    70.00 Ry     beta= 0.70
     Davidson diagonalization with overlap
     ethr =  9.08E-05,  avg # of iterations =  4.5

     negative rho (up, down):  1.891E-02 1.454E-01

     total cpu time spent up to now is     2108.4 secs

     total energy              =    -950.37014840 Ry
     Harris-Foulkes estimate   =    -950.37526162 Ry
     estimated scf accuracy    <       1.01264644 Ry

     total magnetization       =     0.00 Bohr mag/cell
     absolute magnetization    =     0.93 Bohr mag/cell

     iteration # 20     ecut=    70.00 Ry     beta= 0.70
     Davidson diagonalization with overlap
     ethr =  9.08E-05,  avg # of iterations =  3.0

     negative rho (up, down):  1.430E-02 3.365E-01

     total cpu time spent up to now is     2200.6 secs

     total energy              =    -950.24633194 Ry
     Harris-Foulkes estimate   =    -950.47155646 Ry
     estimated scf accuracy    <       7.05650567 Ry

     total magnetization       =    -0.00 Bohr mag/cell
     absolute magnetization    =     4.07 Bohr mag/cell

     iteration # 21     ecut=    70.00 Ry     beta= 0.70
     Davidson diagonalization with overlap
     ethr =  9.08E-05,  avg # of iterations =  3.0

     negative rho (up, down):  4.276E-03 2.904E-01

     total cpu time spent up to now is     2292.4 secs

     total energy              =    -950.35226677 Ry
     Harris-Foulkes estimate   =    -950.33878706 Ry
     estimated scf accuracy    <       0.14442527 Ry

     total magnetization       =    -0.00 Bohr mag/cell
     absolute magnetization    =     0.68 Bohr mag/cell

     iteration # 22     ecut=    70.00 Ry     beta= 0.70
     Davidson diagonalization with overlap
     ethr =  6.69E-05,  avg # of iterations =  2.0

     negative rho (up, down):  4.256E-03 3.006E-01

     total cpu time spent up to now is     2378.8 secs

     total energy              =    -950.34928117 Ry
     Harris-Foulkes estimate   =    -950.36734228 Ry
     estimated scf accuracy    <       0.80835858 Ry

     total magnetization       =     0.00 Bohr mag/cell
     absolute magnetization    =     1.49 Bohr mag/cell

     iteration # 23     ecut=    70.00 Ry     beta= 0.70
     Davidson diagonalization with overlap
     ethr =  6.69E-05,  avg # of iterations =  2.0

     negative rho (up, down):  1.991E-03 2.412E-01

     total cpu time spent up to now is     2463.8 secs

     total energy              =    -950.35643614 Ry
     Harris-Foulkes estimate   =    -950.35927255 Ry
     estimated scf accuracy    <       0.07325766 Ry

     total magnetization       =    -0.00 Bohr mag/cell
     absolute magnetization    =     0.47 Bohr mag/cell

     iteration # 24     ecut=    70.00 Ry     beta= 0.70
     Davidson diagonalization with overlap
     ethr =  3.39E-05,  avg # of iterations =  2.0

     negative rho (up, down):  4.616E-03 1.854E-01

     total cpu time spent up to now is     2549.4 secs

     total energy              =    -950.35789565 Ry
     Harris-Foulkes estimate   =    -950.36311089 Ry
     estimated scf accuracy    <       0.13763285 Ry

     total magnetization       =    -0.00 Bohr mag/cell
     absolute magnetization    =     0.58 Bohr mag/cell

     iteration # 25     ecut=    70.00 Ry     beta= 0.70
     Davidson diagonalization with overlap
     ethr =  3.39E-05,  avg # of iterations =  2.0

     negative rho (up, down):  3.808E-03 1.534E-01

     total cpu time spent up to now is     2634.6 secs

     total energy              =    -950.36213863 Ry
     Harris-Foulkes estimate   =    -950.36310882 Ry
     estimated scf accuracy    <       0.07547948 Ry

     total magnetization       =     0.00 Bohr mag/cell
     absolute magnetization    =     0.41 Bohr mag/cell

     iteration # 26     ecut=    70.00 Ry     beta= 0.70
     Davidson diagonalization with overlap
     ethr =  3.39E-05,  avg # of iterations =  2.0

     negative rho (up, down):  1.732E-03 2.432E-01

     total cpu time spent up to now is     2719.7 secs

     total energy              =    -950.36803694 Ry
     Harris-Foulkes estimate   =    -950.36618289 Ry
     estimated scf accuracy    <       0.22985465 Ry

     total magnetization       =    -0.00 Bohr mag/cell
     absolute magnetization    =     0.78 Bohr mag/cell

     iteration # 27     ecut=    70.00 Ry     beta= 0.70
     Davidson diagonalization with overlap
     ethr =  3.39E-05,  avg # of iterations =  2.0

     negative rho (up, down):  4.015E-03 2.633E-01

     total cpu time spent up to now is     2802.9 secs

     total energy              =    -950.36599135 Ry
     Harris-Foulkes estimate   =    -950.36903321 Ry
     estimated scf accuracy    <       0.45081562 Ry

     total magnetization       =    -0.00 Bohr mag/cell
     absolute magnetization    =     1.07 Bohr mag/cell

     iteration # 28     ecut=    70.00 Ry     beta= 0.70
     Davidson diagonalization with overlap
     ethr =  3.39E-05,  avg # of iterations =  1.5

     negative rho (up, down):  5.886E-03 2.518E-01

     total cpu time spent up to now is     2885.6 secs

     total energy              =    -950.34826172 Ry
     Harris-Foulkes estimate   =    -950.36764333 Ry
     estimated scf accuracy    <       0.39742999 Ry

     total magnetization       =     0.00 Bohr mag/cell
     absolute magnetization    =     0.92 Bohr mag/cell

     iteration # 29     ecut=    70.00 Ry     beta= 0.70
     Davidson diagonalization with overlap
     ethr =  3.39E-05,  avg # of iterations =  2.0

     negative rho (up, down):  2.492E-03 1.420E-01

     total cpu time spent up to now is     2972.3 secs

     total energy              =    -950.36131401 Ry
     Harris-Foulkes estimate   =    -950.35915906 Ry
     estimated scf accuracy    <       0.02017684 Ry

     total magnetization       =     0.00 Bohr mag/cell
     absolute magnetization    =     0.20 Bohr mag/cell

     iteration # 30     ecut=    70.00 Ry     beta= 0.70
     Davidson diagonalization with overlap
     ethr =  9.34E-06,  avg # of iterations =  2.5

     negative rho (up, down):  2.201E-03 2.316E-01

     total cpu time spent up to now is     3061.1 secs

     total energy              =    -950.36276306 Ry
     Harris-Foulkes estimate   =    -950.36569143 Ry
     estimated scf accuracy    <       0.22269997 Ry

     total magnetization       =    -0.00 Bohr mag/cell
     absolute magnetization    =     0.74 Bohr mag/cell

     iteration # 31     ecut=    70.00 Ry     beta= 0.70
     Davidson diagonalization with overlap
     ethr =  9.34E-06,  avg # of iterations =  2.0

     negative rho (up, down):  3.413E-03 2.056E-01

     total cpu time spent up to now is     3145.1 secs

     total energy              =    -950.35877183 Ry
     Harris-Foulkes estimate   =    -950.36351615 Ry
     estimated scf accuracy    <       0.10142971 Ry

     total magnetization       =     0.00 Bohr mag/cell
     absolute magnetization    =     0.46 Bohr mag/cell

     iteration # 32     ecut=    70.00 Ry     beta= 0.70
     Davidson diagonalization with overlap
     ethr =  9.34E-06,  avg # of iterations =  2.5

     negative rho (up, down):  2.830E-03 2.419E-01

     total cpu time spent up to now is     3233.0 secs

     total energy              =    -950.36070323 Ry
     Harris-Foulkes estimate   =    -950.36403445 Ry
     estimated scf accuracy    <       0.18193082 Ry

     total magnetization       =     0.00 Bohr mag/cell
     absolute magnetization    =     0.68 Bohr mag/cell

     iteration # 33     ecut=    70.00 Ry     beta= 0.70
     Davidson diagonalization with overlap
     ethr =  9.34E-06,  avg # of iterations =  2.0

     negative rho (up, down):  2.053E-03 2.077E-01

     total cpu time spent up to now is     3318.3 secs

     total energy              =    -950.36127365 Ry
     Harris-Foulkes estimate   =    -950.36202082 Ry
     estimated scf accuracy    <       0.03814706 Ry

     total magnetization       =    -0.00 Bohr mag/cell
     absolute magnetization    =     0.31 Bohr mag/cell

     iteration # 34     ecut=    70.00 Ry     beta= 0.70
     Davidson diagonalization with overlap
     ethr =  9.34E-06,  avg # of iterations =  2.0

     negative rho (up, down):  4.639E-03 1.618E-01

     total cpu time spent up to now is     3404.8 secs

     total energy              =    -950.35937577 Ry
     Harris-Foulkes estimate   =    -950.36342783 Ry
     estimated scf accuracy    <       0.09087989 Ry

     total magnetization       =     0.00 Bohr mag/cell
     absolute magnetization    =     0.38 Bohr mag/cell

     iteration # 35     ecut=    70.00 Ry     beta= 0.70
     Davidson diagonalization with overlap
     ethr =  9.34E-06,  avg # of iterations =  2.0

     negative rho (up, down):  2.771E-03 1.131E-01

     total cpu time spent up to now is     3491.7 secs

     total energy              =    -950.36090689 Ry
     Harris-Foulkes estimate   =    -950.36257866 Ry
     estimated scf accuracy    <       0.02853860 Ry

     total magnetization       =     0.00 Bohr mag/cell
     absolute magnetization    =     0.17 Bohr mag/cell

     iteration # 36     ecut=    70.00 Ry     beta= 0.70
     Davidson diagonalization with overlap
     ethr =  9.34E-06,  avg # of iterations =  2.0

     negative rho (up, down):  1.221E-03 1.360E-01

     total cpu time spent up to now is     3576.5 secs

     total energy              =    -950.36227835 Ry
     Harris-Foulkes estimate   =    -950.36224664 Ry
     estimated scf accuracy    <       0.01726207 Ry

     total magnetization       =     0.00 Bohr mag/cell
     absolute magnetization    =     0.21 Bohr mag/cell

     iteration # 37     ecut=    70.00 Ry     beta= 0.70
     Davidson diagonalization with overlap
     ethr =  7.99E-06,  avg # of iterations =  1.5

     negative rho (up, down):  1.555E-03 1.600E-01

     total cpu time spent up to now is     3660.2 secs

     total energy              =    -950.36232931 Ry
     Harris-Foulkes estimate   =    -950.36251998 Ry
     estimated scf accuracy    <       0.02822532 Ry

     total magnetization       =    -0.00 Bohr mag/cell
     absolute magnetization    =     0.27 Bohr mag/cell

     iteration # 38     ecut=    70.00 Ry     beta= 0.70
     Davidson diagonalization with overlap
     ethr =  7.99E-06,  avg # of iterations =  1.0

     negative rho (up, down):  1.564E-03 1.653E-01

     total cpu time spent up to now is     3743.1 secs

     total energy              =    -950.36079220 Ry
     Harris-Foulkes estimate   =    -950.36234354 Ry
     estimated scf accuracy    <       0.02372281 Ry

     total magnetization       =    -0.00 Bohr mag/cell
     absolute magnetization    =     0.25 Bohr mag/cell

     iteration # 39     ecut=    70.00 Ry     beta= 0.70
     Davidson diagonalization with overlap
     ethr =  7.99E-06,  avg # of iterations =  2.0

     negative rho (up, down):  1.596E-03 8.598E-02

     total cpu time spent up to now is     3829.3 secs

     total energy              =    -950.36174031 Ry
     Harris-Foulkes estimate   =    -950.36273199 Ry
     estimated scf accuracy    <       0.02130363 Ry

     total magnetization       =     0.00 Bohr mag/cell
     absolute magnetization    =     0.17 Bohr mag/cell

     iteration # 40     ecut=    70.00 Ry     beta= 0.70
     Davidson diagonalization with overlap
     ethr =  7.99E-06,  avg # of iterations =  2.0

     negative rho (up, down):  1.481E-03 1.752E-01

     total cpu time spent up to now is     3914.5 secs

     total energy              =    -950.36235142 Ry
     Harris-Foulkes estimate   =    -950.36302544 Ry
     estimated scf accuracy    <       0.05401937 Ry

     total magnetization       =    -0.00 Bohr mag/cell
     absolute magnetization    =     0.35 Bohr mag/cell

     iteration # 41     ecut=    70.00 Ry     beta= 0.70
     Davidson diagonalization with overlap
     ethr =  7.99E-06,  avg # of iterations =  1.5

     negative rho (up, down):  1.868E-03 1.632E-01

     total cpu time spent up to now is     3997.1 secs

     total energy              =    -950.36117132 Ry
     Harris-Foulkes estimate   =    -950.36244733 Ry
     estimated scf accuracy    <       0.02892120 Ry

     total magnetization       =    -0.00 Bohr mag/cell
     absolute magnetization    =     0.25 Bohr mag/cell

     iteration # 42     ecut=    70.00 Ry     beta= 0.70
     Davidson diagonalization with overlap
     ethr =  7.99E-06,  avg # of iterations =  2.0

     negative rho (up, down):  1.760E-03 1.940E-01

     total cpu time spent up to now is     4082.5 secs

     total energy              =    -950.36212393 Ry
     Harris-Foulkes estimate   =    -950.36264703 Ry
     estimated scf accuracy    <       0.04997736 Ry

     total magnetization       =    -0.00 Bohr mag/cell
     absolute magnetization    =     0.35 Bohr mag/cell

     iteration # 43     ecut=    70.00 Ry     beta= 0.70
     Davidson diagonalization with overlap
     ethr =  7.99E-06,  avg # of iterations =  2.0

     negative rho (up, down):  1.669E-03 1.730E-01

     total cpu time spent up to now is     4165.7 secs

     total energy              =    -950.36165610 Ry
     Harris-Foulkes estimate   =    -950.36233346 Ry
     estimated scf accuracy    <       0.01870484 Ry

     total magnetization       =     0.00 Bohr mag/cell
     absolute magnetization    =     0.21 Bohr mag/cell

     iteration # 44     ecut=    70.00 Ry     beta= 0.70
     Davidson diagonalization with overlap
     ethr =  7.99E-06,  avg # of iterations =  1.5

     negative rho (up, down):  1.928E-03 1.276E-01

     total cpu time spent up to now is     4249.7 secs

     total energy              =    -950.36162600 Ry
     Harris-Foulkes estimate   =    -950.36214168 Ry
     estimated scf accuracy    <       0.01383934 Ry

     total magnetization       =     0.00 Bohr mag/cell
     absolute magnetization    =     0.16 Bohr mag/cell

     iteration # 45     ecut=    70.00 Ry     beta= 0.70
     Davidson diagonalization with overlap
     ethr =  6.41E-06,  avg # of iterations =  2.0

     negative rho (up, down):  1.262E-03 7.278E-02

     total cpu time spent up to now is     4333.6 secs

     total energy              =    -950.36194008 Ry
     Harris-Foulkes estimate   =    -950.36202460 Ry
     estimated scf accuracy    <       0.00288062 Ry

     total magnetization       =    -0.00 Bohr mag/cell
     absolute magnetization    =     0.06 Bohr mag/cell

     iteration # 46     ecut=    70.00 Ry     beta= 0.70
     Davidson diagonalization with overlap
     ethr =  1.33E-06,  avg # of iterations =  2.0

     negative rho (up, down):  1.709E-03 8.843E-02

     total cpu time spent up to now is     4421.7 secs

     total energy              =    -950.36255616 Ry
     Harris-Foulkes estimate   =    -950.36238631 Ry
     estimated scf accuracy    <       0.01498896 Ry

     total magnetization       =    -0.00 Bohr mag/cell
     absolute magnetization    =     0.16 Bohr mag/cell

     iteration # 47     ecut=    70.00 Ry     beta= 0.70
     Davidson diagonalization with overlap
     ethr =  1.33E-06,  avg # of iterations =  3.0

     negative rho (up, down):  2.733E-03 1.785E-01

     total cpu time spent up to now is     4511.9 secs

     total energy              =    -950.36251173 Ry
     Harris-Foulkes estimate   =    -950.36353318 Ry
     estimated scf accuracy    <       0.08889781 Ry

     total magnetization       =     0.00 Bohr mag/cell
     absolute magnetization    =     0.43 Bohr mag/cell

     iteration # 48     ecut=    70.00 Ry     beta= 0.70
     Davidson diagonalization with overlap
     ethr =  1.33E-06,  avg # of iterations =  2.5

     negative rho (up, down):  2.640E-03 1.830E-01

     total cpu time spent up to now is     4597.4 secs

     total energy              =    -950.36014737 Ry
     Harris-Foulkes estimate   =    -950.36258661 Ry
     estimated scf accuracy    <       0.05630267 Ry

     total magnetization       =     0.00 Bohr mag/cell
     absolute magnetization    =     0.34 Bohr mag/cell

     iteration # 49     ecut=    70.00 Ry     beta= 0.70
     Davidson diagonalization with overlap
     ethr =  1.33E-06,  avg # of iterations =  3.0

     negative rho (up, down):  1.272E-03 8.134E-02

     total cpu time spent up to now is     4688.6 secs

     total energy              =    -950.36198857 Ry
     Harris-Foulkes estimate   =    -950.36157242 Ry
     estimated scf accuracy    <       0.00238606 Ry

     total magnetization       =     0.00 Bohr mag/cell
     absolute magnetization    =     0.06 Bohr mag/cell

     iteration # 50     ecut=    70.00 Ry     beta= 0.70
     Davidson diagonalization with overlap
     ethr =  1.10E-06,  avg # of iterations =  2.5

     negative rho (up, down):  1.354E-03 1.210E-01

     total cpu time spent up to now is     4777.2 secs

     total energy              =    -950.36223866 Ry
     Harris-Foulkes estimate   =    -950.36232180 Ry
     estimated scf accuracy    <       0.01694718 Ry

     total magnetization       =    -0.00 Bohr mag/cell
     absolute magnetization    =     0.19 Bohr mag/cell

     iteration # 51     ecut=    70.00 Ry     beta= 0.70
     Davidson diagonalization with overlap
     ethr =  1.10E-06,  avg # of iterations =  1.0

     negative rho (up, down):  1.526E-03 1.293E-01

     total cpu time spent up to now is     4859.9 secs

     total energy              =    -950.36170480 Ry
     Harris-Foulkes estimate   =    -950.36224733 Ry
     estimated scf accuracy    <       0.01339763 Ry

     total magnetization       =     0.00 Bohr mag/cell
     absolute magnetization    =     0.17 Bohr mag/cell

     iteration # 52     ecut=    70.00 Ry     beta= 0.70
     Davidson diagonalization with overlap
     ethr =  1.10E-06,  avg # of iterations =  2.5

     negative rho (up, down):  1.262E-03 1.155E-01

     total cpu time spent up to now is     4946.9 secs

     total energy              =    -950.36211849 Ry
     Harris-Foulkes estimate   =    -950.36207169 Ry
     estimated scf accuracy    <       0.00676679 Ry

     total magnetization       =    -0.00 Bohr mag/cell
     absolute magnetization    =     0.13 Bohr mag/cell

     iteration # 53     ecut=    70.00 Ry     beta= 0.70
     Davidson diagonalization with overlap
     ethr =  1.10E-06,  avg # of iterations =  1.0

     negative rho (up, down):  1.223E-03 1.073E-01

     total cpu time spent up to now is     5029.3 secs

     total energy              =    -950.36205071 Ry
     Harris-Foulkes estimate   =    -950.36213012 Ry
     estimated scf accuracy    <       0.00387657 Ry

     total magnetization       =     0.00 Bohr mag/cell
     absolute magnetization    =     0.10 Bohr mag/cell

     iteration # 54     ecut=    70.00 Ry     beta= 0.70
     Davidson diagonalization with overlap
     ethr =  1.10E-06,  avg # of iterations =  2.0

     negative rho (up, down):  1.482E-03 9.847E-02

     total cpu time spent up to now is     5114.0 secs

     total energy              =    -950.36191321 Ry
     Harris-Foulkes estimate   =    -950.36219128 Ry
     estimated scf accuracy    <       0.00723064 Ry

     total magnetization       =    -0.00 Bohr mag/cell
     absolute magnetization    =     0.11 Bohr mag/cell

     iteration # 55     ecut=    70.00 Ry     beta= 0.70
     Davidson diagonalization with overlap
     ethr =  1.10E-06,  avg # of iterations =  2.0

     negative rho (up, down):  1.167E-03 6.428E-02

     total cpu time spent up to now is     5200.7 secs

     total energy              =    -950.36187463 Ry
     Harris-Foulkes estimate   =    -950.36221385 Ry
     estimated scf accuracy    <       0.00323488 Ry

     total magnetization       =    -0.00 Bohr mag/cell
     absolute magnetization    =     0.05 Bohr mag/cell

     iteration # 56     ecut=    70.00 Ry     beta= 0.70
     Davidson diagonalization with overlap
     ethr =  1.10E-06,  avg # of iterations =  2.0

     negative rho (up, down):  1.310E-03 5.277E-02

     total cpu time spent up to now is     5286.2 secs

     total energy              =    -950.36200778 Ry
     Harris-Foulkes estimate   =    -950.36211602 Ry
     estimated scf accuracy    <       0.00323739 Ry

     total magnetization       =     0.00 Bohr mag/cell
     absolute magnetization    =     0.07 Bohr mag/cell

     iteration # 57     ecut=    70.00 Ry     beta= 0.70
     Davidson diagonalization with overlap
     ethr =  1.10E-06,  avg # of iterations =  2.0

     negative rho (up, down):  1.222E-03 5.854E-02

     total cpu time spent up to now is     5369.1 secs

     total energy              =    -950.36205870 Ry
     Harris-Foulkes estimate   =    -950.36205270 Ry
     estimated scf accuracy    <       0.00153963 Ry

     total magnetization       =    -0.00 Bohr mag/cell
     absolute magnetization    =     0.06 Bohr mag/cell

     iteration # 58     ecut=    70.00 Ry     beta= 0.70
     Davidson diagonalization with overlap
     ethr =  7.13E-07,  avg # of iterations =  1.0

     negative rho (up, down):  1.199E-03 6.933E-02

     total cpu time spent up to now is     5451.5 secs

     total energy              =    -950.36194629 Ry
     Harris-Foulkes estimate   =    -950.36206059 Ry
     estimated scf accuracy    <       0.00205076 Ry

     total magnetization       =    -0.00 Bohr mag/cell
     absolute magnetization    =     0.07 Bohr mag/cell

     iteration # 59     ecut=    70.00 Ry     beta= 0.70
     Davidson diagonalization with overlap
     ethr =  7.13E-07,  avg # of iterations =  2.0

     negative rho (up, down):  1.195E-03 2.858E-02

     total cpu time spent up to now is     5537.4 secs

     total energy              =    -950.36198832 Ry
     Harris-Foulkes estimate   =    -950.36212011 Ry
     estimated scf accuracy    <       0.00210794 Ry

     total magnetization       =    -0.00 Bohr mag/cell
     absolute magnetization    =     0.04 Bohr mag/cell

     iteration # 60     ecut=    70.00 Ry     beta= 0.70
     Davidson diagonalization with overlap
     ethr =  7.13E-07,  avg # of iterations =  2.0

     negative rho (up, down):  1.178E-03 6.334E-02

     total cpu time spent up to now is     5622.5 secs

     total energy              =    -950.36208505 Ry
     Harris-Foulkes estimate   =    -950.36209005 Ry
     estimated scf accuracy    <       0.00282603 Ry

     total magnetization       =     0.00 Bohr mag/cell
     absolute magnetization    =     0.08 Bohr mag/cell

     iteration # 61     ecut=    70.00 Ry     beta= 0.70
     Davidson diagonalization with overlap
     ethr =  7.13E-07,  avg # of iterations =  1.0

     negative rho (up, down):  1.215E-03 7.709E-02

     total cpu time spent up to now is     5705.3 secs

     total energy              =    -950.36206012 Ry
     Harris-Foulkes estimate   =    -950.36208590 Ry
     estimated scf accuracy    <       0.00292759 Ry

     total magnetization       =    -0.00 Bohr mag/cell
     absolute magnetization    =     0.08 Bohr mag/cell

     iteration # 62     ecut=    70.00 Ry     beta= 0.70
     Davidson diagonalization with overlap
     ethr =  7.13E-07,  avg # of iterations =  2.0

     negative rho (up, down):  1.253E-03 1.159E-01

     total cpu time spent up to now is     5790.4 secs

     total energy              =    -950.36214991 Ry
     Harris-Foulkes estimate   =    -950.36217551 Ry
     estimated scf accuracy    <       0.00772539 Ry

     total magnetization       =     0.00 Bohr mag/cell
     absolute magnetization    =     0.13 Bohr mag/cell

     iteration # 63     ecut=    70.00 Ry     beta= 0.70
     Davidson diagonalization with overlap
     ethr =  7.13E-07,  avg # of iterations =  1.5

     negative rho (up, down):  1.263E-03 1.169E-01

     total cpu time spent up to now is     5873.0 secs

     total energy              =    -950.36201971 Ry
     Harris-Foulkes estimate   =    -950.36215805 Ry
     estimated scf accuracy    <       0.00533207 Ry

     total magnetization       =    -0.00 Bohr mag/cell
     absolute magnetization    =     0.11 Bohr mag/cell

     iteration # 64     ecut=    70.00 Ry     beta= 0.70
     Davidson diagonalization with overlap
     ethr =  7.13E-07,  avg # of iterations =  2.0

     negative rho (up, down):  1.258E-03 8.418E-02

     total cpu time spent up to now is     5957.1 secs

     total energy              =    -950.36199073 Ry
     Harris-Foulkes estimate   =    -950.36208127 Ry
     estimated scf accuracy    <       0.00237656 Ry

     total magnetization       =     0.00 Bohr mag/cell
     absolute magnetization    =     0.06 Bohr mag/cell

     iteration # 65     ecut=    70.00 Ry     beta= 0.70
     Davidson diagonalization with overlap
     ethr =  7.13E-07,  avg # of iterations =  2.0

     negative rho (up, down):  1.144E-03 2.713E-02

     total cpu time spent up to now is     6041.1 secs

     total energy              =    -950.36201088 Ry
     Harris-Foulkes estimate   =    -950.36205631 Ry
     estimated scf accuracy    <       0.00031625 Ry

     total magnetization       =    -0.00 Bohr mag/cell
     absolute magnetization    =     0.01 Bohr mag/cell

     iteration # 66     ecut=    70.00 Ry     beta= 0.70
     Davidson diagonalization with overlap
     ethr =  1.46E-07,  avg # of iterations =  2.5

     negative rho (up, down):  1.196E-03 3.294E-02

     total cpu time spent up to now is     6127.8 secs

     total energy              =    -950.36205675 Ry
     Harris-Foulkes estimate   =    -950.36207207 Ry
     estimated scf accuracy    <       0.00110121 Ry

     total magnetization       =    -0.00 Bohr mag/cell
     absolute magnetization    =     0.04 Bohr mag/cell

     iteration # 67     ecut=    70.00 Ry     beta= 0.70
     Davidson diagonalization with overlap
     ethr =  1.46E-07,  avg # of iterations =  3.0

     negative rho (up, down):  1.238E-03 9.240E-02

     total cpu time spent up to now is     6219.8 secs

     total energy              =    -950.36213415 Ry
     Harris-Foulkes estimate   =    -950.36217549 Ry
     estimated scf accuracy    <       0.00666753 Ry

     total magnetization       =     0.00 Bohr mag/cell
     absolute magnetization    =     0.12 Bohr mag/cell

     iteration # 68     ecut=    70.00 Ry     beta= 0.70
     Davidson diagonalization with overlap
     ethr =  1.46E-07,  avg # of iterations =  1.0

     negative rho (up, down):  1.230E-03 1.062E-01

     total cpu time spent up to now is     6302.3 secs

     total energy              =    -950.36184869 Ry
     Harris-Foulkes estimate   =    -950.36213521 Ry
     estimated scf accuracy    <       0.00580852 Ry

     total magnetization       =     0.00 Bohr mag/cell
     absolute magnetization    =     0.11 Bohr mag/cell

     iteration # 69     ecut=    70.00 Ry     beta= 0.70
     Davidson diagonalization with overlap
     ethr =  1.46E-07,  avg # of iterations =  3.0

     negative rho (up, down):  1.162E-03 3.940E-02

     total cpu time spent up to now is     6394.7 secs

     total energy              =    -950.36204385 Ry
     Harris-Foulkes estimate   =    -950.36202427 Ry
     estimated scf accuracy    <       0.00080617 Ry

     total magnetization       =    -0.00 Bohr mag/cell
     absolute magnetization    =     0.03 Bohr mag/cell

     iteration # 70     ecut=    70.00 Ry     beta= 0.70
     Davidson diagonalization with overlap
     ethr =  1.46E-07,  avg # of iterations =  3.0

     negative rho (up, down):  1.272E-03 7.957E-02

     total cpu time spent up to now is     6483.9 secs

     total energy              =    -950.36212381 Ry
     Harris-Foulkes estimate   =    -950.36214240 Ry
     estimated scf accuracy    <       0.00578943 Ry

     total magnetization       =     0.00 Bohr mag/cell
     absolute magnetization    =     0.11 Bohr mag/cell

     iteration # 71     ecut=    70.00 Ry     beta= 0.70
     Davidson diagonalization with overlap
     ethr =  1.46E-07,  avg # of iterations =  1.0

     negative rho (up, down):  1.327E-03 9.836E-02

     total cpu time spent up to now is     6566.3 secs

     total energy              =    -950.36193779 Ry
     Harris-Foulkes estimate   =    -950.36212458 Ry
     estimated scf accuracy    <       0.00579803 Ry

     total magnetization       =     0.00 Bohr mag/cell
     absolute magnetization    =     0.11 Bohr mag/cell

     iteration # 72     ecut=    70.00 Ry     beta= 0.70
     Davidson diagonalization with overlap
     ethr =  1.46E-07,  avg # of iterations =  2.5

     negative rho (up, down):  1.182E-03 5.684E-02

     total cpu time spent up to now is     6654.1 secs

     total energy              =    -950.36205484 Ry
     Harris-Foulkes estimate   =    -950.36201630 Ry
     estimated scf accuracy    <       0.00053759 Ry

     total magnetization       =    -0.00 Bohr mag/cell
     absolute magnetization    =     0.04 Bohr mag/cell

     iteration # 73     ecut=    70.00 Ry     beta= 0.70
     Davidson diagonalization with overlap
     ethr =  1.46E-07,  avg # of iterations =  1.0

     negative rho (up, down):  1.166E-03 5.603E-02

     total cpu time spent up to now is     6736.1 secs

     total energy              =    -950.36206392 Ry
     Harris-Foulkes estimate   =    -950.36205599 Ry
     estimated scf accuracy    <       0.00089132 Ry

     total magnetization       =    -0.00 Bohr mag/cell
     absolute magnetization    =     0.05 Bohr mag/cell

     iteration # 74     ecut=    70.00 Ry     beta= 0.70
     Davidson diagonalization with overlap
     ethr =  1.46E-07,  avg # of iterations =  2.0

     negative rho (up, down):  1.239E-03 6.372E-02

     total cpu time spent up to now is     6821.0 secs

     total energy              =    -950.36198931 Ry
     Harris-Foulkes estimate   =    -950.36208783 Ry
     estimated scf accuracy    <       0.00216251 Ry

     total magnetization       =     0.00 Bohr mag/cell
     absolute magnetization    =     0.06 Bohr mag/cell

     iteration # 75     ecut=    70.00 Ry     beta= 0.70
     Davidson diagonalization with overlap
     ethr =  1.46E-07,  avg # of iterations =  3.0

     negative rho (up, down):  1.152E-03 2.019E-02

     total cpu time spent up to now is     6909.3 secs

     total energy              =    -950.36199535 Ry
     Harris-Foulkes estimate   =    -950.36206855 Ry
     estimated scf accuracy    <       0.00067869 Ry

     total magnetization       =    -0.00 Bohr mag/cell
     absolute magnetization    =     0.03 Bohr mag/cell

     iteration # 76     ecut=    70.00 Ry     beta= 0.70
     Davidson diagonalization with overlap
     ethr =  1.46E-07,  avg # of iterations =  3.0

     negative rho (up, down):  1.199E-03 2.099E-02

     total cpu time spent up to now is     6996.0 secs

     total energy              =    -950.36202768 Ry
     Harris-Foulkes estimate   =    -950.36205830 Ry
     estimated scf accuracy    <       0.00070826 Ry

     total magnetization       =    -0.00 Bohr mag/cell
     absolute magnetization    =     0.03 Bohr mag/cell

     iteration # 77     ecut=    70.00 Ry     beta= 0.70
     Davidson diagonalization with overlap
     ethr =  1.46E-07,  avg # of iterations =  2.0

     negative rho (up, down):  1.158E-03 2.917E-02

     total cpu time spent up to now is     7079.9 secs

     total energy              =    -950.36205180 Ry
     Harris-Foulkes estimate   =    -950.36204624 Ry
     estimated scf accuracy    <       0.00038961 Ry

     total magnetization       =     0.00 Bohr mag/cell
     absolute magnetization    =     0.03 Bohr mag/cell

     iteration # 78     ecut=    70.00 Ry     beta= 0.70
     Davidson diagonalization with overlap
     ethr =  1.46E-07,  avg # of iterations =  1.5

     negative rho (up, down):  1.153E-03 4.457E-02

     total cpu time spent up to now is     7162.4 secs

     total energy              =    -950.36201147 Ry
     Harris-Foulkes estimate   =    -950.36205349 Ry
     estimated scf accuracy    <       0.00083354 Ry

     total magnetization       =     0.00 Bohr mag/cell
     absolute magnetization    =     0.04 Bohr mag/cell

     iteration # 79     ecut=    70.00 Ry     beta= 0.70
     Davidson diagonalization with overlap
     ethr =  1.46E-07,  avg # of iterations =  2.0

     negative rho (up, down):  1.144E-03 1.297E-02

     total cpu time spent up to now is     7247.9 secs

     total energy              =    -950.36203798 Ry
     Harris-Foulkes estimate   =    -950.36203821 Ry
     estimated scf accuracy    <       0.00012388 Ry

     total magnetization       =     0.00 Bohr mag/cell
     absolute magnetization    =     0.01 Bohr mag/cell

     iteration # 80     ecut=    70.00 Ry     beta= 0.70
     Davidson diagonalization with overlap
     ethr =  5.74E-08,  avg # of iterations =  2.0

     negative rho (up, down):  1.148E-03 1.636E-02

     total cpu time spent up to now is     7332.6 secs

     total energy              =    -950.36204384 Ry
     Harris-Foulkes estimate   =    -950.36204387 Ry
     estimated scf accuracy    <       0.00019980 Ry

     total magnetization       =    -0.00 Bohr mag/cell
     absolute magnetization    =     0.02 Bohr mag/cell

     iteration # 81     ecut=    70.00 Ry     beta= 0.70
     Davidson diagonalization with overlap
     ethr =  5.74E-08,  avg # of iterations =  1.0

     negative rho (up, down):  1.150E-03 2.414E-02

     total cpu time spent up to now is     7414.8 secs

     total energy              =    -950.36204182 Ry
     Harris-Foulkes estimate   =    -950.36204411 Ry
     estimated scf accuracy    <       0.00026048 Ry

     total magnetization       =    -0.00 Bohr mag/cell
     absolute magnetization    =     0.02 Bohr mag/cell

     iteration # 82     ecut=    70.00 Ry     beta= 0.70
     Davidson diagonalization with overlap
     ethr =  5.74E-08,  avg # of iterations =  2.0

     negative rho (up, down):  1.147E-03 3.253E-02

     total cpu time spent up to now is     7498.9 secs

     total energy              =    -950.36204995 Ry
     Harris-Foulkes estimate   =    -950.36204949 Ry
     estimated scf accuracy    <       0.00041163 Ry

     total magnetization       =     0.00 Bohr mag/cell
     absolute magnetization    =     0.03 Bohr mag/cell

     iteration # 83     ecut=    70.00 Ry     beta= 0.70
     Davidson diagonalization with overlap
     ethr =  5.74E-08,  avg # of iterations =  1.0

     negative rho (up, down):  1.148E-03 4.075E-02

     total cpu time spent up to now is     7581.1 secs

     total energy              =    -950.36204473 Ry
     Harris-Foulkes estimate   =    -950.36205062 Ry
     estimated scf accuracy    <       0.00049662 Ry

     total magnetization       =     0.00 Bohr mag/cell
     absolute magnetization    =     0.03 Bohr mag/cell

     iteration # 84     ecut=    70.00 Ry     beta= 0.70
     Davidson diagonalization with overlap
     ethr =  5.74E-08,  avg # of iterations =  2.0

     negative rho (up, down):  1.153E-03 3.164E-02

     total cpu time spent up to now is     7664.4 secs

     total energy              =    -950.36203405 Ry
     Harris-Foulkes estimate   =    -950.36204756 Ry
     estimated scf accuracy    <       0.00026428 Ry

     total magnetization       =    -0.00 Bohr mag/cell
     absolute magnetization    =     0.02 Bohr mag/cell

     iteration # 85     ecut=    70.00 Ry     beta= 0.70
     Davidson diagonalization with overlap
     ethr =  5.74E-08,  avg # of iterations =  2.0

     negative rho (up, down):  1.145E-03 6.716E-03

     total cpu time spent up to now is     7749.8 secs

     total energy              =    -950.36203587 Ry
     Harris-Foulkes estimate   =    -950.36204299 Ry
     estimated scf accuracy    <       0.00007025 Ry

     total magnetization       =    -0.00 Bohr mag/cell
     absolute magnetization    =     0.01 Bohr mag/cell

     iteration # 86     ecut=    70.00 Ry     beta= 0.70
     Davidson diagonalization with overlap
     ethr =  3.25E-08,  avg # of iterations =  2.0

     negative rho (up, down):  1.147E-03 6.752E-03

     total cpu time spent up to now is     7834.6 secs

     total energy              =    -950.36203944 Ry
     Harris-Foulkes estimate   =    -950.36204244 Ry
     estimated scf accuracy    <       0.00005733 Ry

     total magnetization       =    -0.00 Bohr mag/cell
     absolute magnetization    =     0.01 Bohr mag/cell

     iteration # 87     ecut=    70.00 Ry     beta= 0.70
     Davidson diagonalization with overlap
     ethr =  2.65E-08,  avg # of iterations =  2.0

     negative rho (up, down):  1.144E-03 1.106E-02

     total cpu time spent up to now is     7918.2 secs

     total energy              =    -950.36204215 Ry
     Harris-Foulkes estimate   =    -950.36204248 Ry
     estimated scf accuracy    <       0.00006361 Ry

     total magnetization       =    -0.00 Bohr mag/cell
     absolute magnetization    =     0.01 Bohr mag/cell

     iteration # 88     ecut=    70.00 Ry     beta= 0.70
     Davidson diagonalization with overlap
     ethr =  2.65E-08,  avg # of iterations =  1.5

     negative rho (up, down):  1.144E-03 1.767E-02

     total cpu time spent up to now is     8000.8 secs

     total energy              =    -950.36203542 Ry
     Harris-Foulkes estimate   =    -950.36204254 Ry
     estimated scf accuracy    <       0.00012264 Ry

     total magnetization       =    -0.00 Bohr mag/cell
     absolute magnetization    =     0.02 Bohr mag/cell

     iteration # 89     ecut=    70.00 Ry     beta= 0.70
     Davidson diagonalization with overlap
     ethr =  2.65E-08,  avg # of iterations =  2.0

     negative rho (up, down):  1.152E-03 1.334E-02

     total cpu time spent up to now is     8087.1 secs

     total energy              =    -950.36203811 Ry
     Harris-Foulkes estimate   =    -950.36204513 Ry
     estimated scf accuracy    <       0.00019547 Ry

     total magnetization       =     0.00 Bohr mag/cell
     absolute magnetization    =     0.02 Bohr mag/cell

     iteration # 90     ecut=    70.00 Ry     beta= 0.70
     Davidson diagonalization with overlap
     ethr =  2.65E-08,  avg # of iterations =  2.0

     negative rho (up, down):  1.151E-03 2.056E-02

     total cpu time spent up to now is     8172.6 secs

     total energy              =    -950.36204354 Ry
     Harris-Foulkes estimate   =    -950.36204473 Ry
     estimated scf accuracy    <       0.00024123 Ry

     total magnetization       =    -0.00 Bohr mag/cell
     absolute magnetization    =     0.02 Bohr mag/cell

     iteration # 91     ecut=    70.00 Ry     beta= 0.70
     Davidson diagonalization with overlap
     ethr =  2.65E-08,  avg # of iterations =  1.5

     negative rho (up, down):  1.149E-03 2.522E-02

     total cpu time spent up to now is     8255.3 secs

     total energy              =    -950.36203734 Ry
     Harris-Foulkes estimate   =    -950.36204384 Ry
     estimated scf accuracy    <       0.00023264 Ry

     total magnetization       =    -0.00 Bohr mag/cell
     absolute magnetization    =     0.02 Bohr mag/cell

     iteration # 92     ecut=    70.00 Ry     beta= 0.70
     Davidson diagonalization with overlap
     ethr =  2.65E-08,  avg # of iterations =  2.0

     negative rho (up, down):  1.144E-03 1.375E-02

     total cpu time spent up to now is     8340.0 secs

     total energy              =    -950.36204182 Ry
     Harris-Foulkes estimate   =    -950.36203952 Ry
     estimated scf accuracy    <       0.00002756 Ry

     total magnetization       =     0.00 Bohr mag/cell
     absolute magnetization    =     0.01 Bohr mag/cell

     iteration # 93     ecut=    70.00 Ry     beta= 0.70
     Davidson diagonalization with overlap
     ethr =  1.28E-08,  avg # of iterations =  2.0

     negative rho (up, down):  1.145E-03 2.070E-02

     total cpu time spent up to now is     8424.0 secs

     total energy              =    -950.36204316 Ry
     Harris-Foulkes estimate   =    -950.36204282 Ry
     estimated scf accuracy    <       0.00014791 Ry

     total magnetization       =     0.00 Bohr mag/cell
     absolute magnetization    =     0.02 Bohr mag/cell

     iteration # 94     ecut=    70.00 Ry     beta= 0.70
     Davidson diagonalization with overlap
     ethr =  1.28E-08,  avg # of iterations =  2.0

     negative rho (up, down):  1.151E-03 2.224E-02

     total cpu time spent up to now is     8507.8 secs

     total energy              =    -950.36203617 Ry
     Harris-Foulkes estimate   =    -950.36204424 Ry
     estimated scf accuracy    <       0.00017882 Ry

     total magnetization       =     0.00 Bohr mag/cell
     absolute magnetization    =     0.02 Bohr mag/cell

     iteration # 95     ecut=    70.00 Ry     beta= 0.70
     Davidson diagonalization with overlap
     ethr =  1.28E-08,  avg # of iterations =  3.0

     negative rho (up, down):  1.144E-03 5.493E-03

     total cpu time spent up to now is     8595.3 secs

     total energy              =    -950.36203834 Ry
     Harris-Foulkes estimate   =    -950.36204191 Ry
     estimated scf accuracy    <       0.00004150 Ry

     total magnetization       =     0.00 Bohr mag/cell
     absolute magnetization    =     0.01 Bohr mag/cell

     iteration # 96     ecut=    70.00 Ry     beta= 0.70
     Davidson diagonalization with overlap
     ethr =  1.28E-08,  avg # of iterations =  2.0

     negative rho (up, down):  1.145E-03 6.394E-03

     total cpu time spent up to now is     8680.5 secs

     total energy              =    -950.36203898 Ry
     Harris-Foulkes estimate   =    -950.36204267 Ry
     estimated scf accuracy    <       0.00004862 Ry

     total magnetization       =    -0.00 Bohr mag/cell
     absolute magnetization    =     0.01 Bohr mag/cell

     iteration # 97     ecut=    70.00 Ry     beta= 0.70
     Davidson diagonalization with overlap
     ethr =  1.28E-08,  avg # of iterations =  2.0

     negative rho (up, down):  1.143E-03 5.159E-03

     total cpu time spent up to now is     8764.3 secs

     total energy              =    -950.36204204 Ry
     Harris-Foulkes estimate   =    -950.36204087 Ry
     estimated scf accuracy    <       0.00001163 Ry

     total magnetization       =     0.00 Bohr mag/cell
     absolute magnetization    =     0.01 Bohr mag/cell

     iteration # 98     ecut=    70.00 Ry     beta= 0.70
     Davidson diagonalization with overlap
     ethr =  5.38E-09,  avg # of iterations =  2.5

     negative rho (up, down):  1.144E-03 2.100E-02

     total cpu time spent up to now is     8851.9 secs

     total energy              =    -950.36203497 Ry
     Harris-Foulkes estimate   =    -950.36204424 Ry
     estimated scf accuracy    <       0.00022031 Ry

     total magnetization       =     0.00 Bohr mag/cell
     absolute magnetization    =     0.02 Bohr mag/cell

     iteration # 99     ecut=    70.00 Ry     beta= 0.70
     Davidson diagonalization with overlap
     ethr =  5.38E-09,  avg # of iterations =  3.0

     negative rho (up, down):  1.143E-03 5.767E-03

     total cpu time spent up to now is     8942.1 secs

     total energy              =    -950.36204041 Ry
     Harris-Foulkes estimate   =    -950.36203931 Ry
     estimated scf accuracy    <       0.00000557 Ry

     total magnetization       =     0.00 Bohr mag/cell
     absolute magnetization    =     0.00 Bohr mag/cell

     iteration #100     ecut=    70.00 Ry     beta= 0.70
     Davidson diagonalization with overlap
     ethr =  2.58E-09,  avg # of iterations =  2.0

     negative rho (up, down):  1.144E-03 4.666E-03

     Magnetic moment per site:
     atom:    1    charge:    0.2107    magn:    0.0000    constr:    0.0000
     atom:    2    charge:    0.2104    magn:   -0.0000    constr:    0.0000
     atom:    3    charge:    1.5101    magn:    0.0000    constr:    0.0000
     atom:    4    charge:    1.5179    magn:   -0.0000    constr:    0.0000
     atom:    5    charge:    1.4816    magn:    0.0000    constr:    0.0000
     atom:    6    charge:    1.4671    magn:   -0.0000    constr:    0.0000
     atom:    7    charge:    1.4811    magn:    0.0000    constr:    0.0000
     atom:    8    charge:    1.5179    magn:   -0.0000    constr:    0.0000
     atom:    9    charge:    1.5098    magn:    0.0000    constr:    0.0000
     atom:   10    charge:    1.5010    magn:   -0.0000    constr:    0.0000
     atom:   11    charge:    1.4924    magn:    0.0000    constr:    0.0000
     atom:   12    charge:    1.5012    magn:   -0.0000    constr:    0.0000
     atom:   13    charge:    1.4921    magn:    0.0000    constr:    0.0000
     atom:   14    charge:    1.4795    magn:   -0.0000    constr:    0.0000
     atom:   15    charge:    1.5060    magn:    0.0000    constr:    0.0000
     atom:   16    charge:    1.5057    magn:   -0.0000    constr:    0.0000
     atom:   17    charge:    1.4733    magn:    0.0000    constr:    0.0000
     atom:   18    charge:    1.5029    magn:   -0.0000    constr:    0.0000
     atom:   19    charge:    1.5054    magn:    0.0000    constr:    0.0000
     atom:   20    charge:    1.4783    magn:   -0.0000    constr:    0.0000
     atom:   21    charge:    1.4920    magn:    0.0000    constr:    0.0000
     atom:   22    charge:    1.5009    magn:   -0.0000    constr:    0.0000
     atom:   23    charge:    1.5095    magn:    0.0000    constr:    0.0000
     atom:   24    charge:    1.5178    magn:   -0.0000    constr:    0.0000
     atom:   25    charge:    1.5055    magn:    0.0000    constr:    0.0000
     atom:   26    charge:    1.5121    magn:   -0.0000    constr:    0.0000
     atom:   27    charge:    1.5020    magn:   -0.0000    constr:    0.0000
     atom:   28    charge:   15.0125    magn:    0.0002    constr:    0.0000
     atom:   29    charge:    1.4915    magn:   -0.0000    constr:    0.0000
     atom:   30    charge:    1.5032    magn:   -0.0000    constr:    0.0000
     atom:   31    charge:    1.5051    magn:    0.0000    constr:    0.0000
     atom:   32    charge:    1.5179    magn:   -0.0000    constr:    0.0000
     atom:   33    charge:    1.4810    magn:    0.0000    constr:    0.0000
     atom:   34    charge:    1.4795    magn:   -0.0000    constr:    0.0000
     atom:   35    charge:    1.4811    magn:    0.0000    constr:    0.0000
     atom:   36    charge:    1.4675    magn:   -0.0000    constr:    0.0000
     atom:   37    charge:    1.4712    magn:    0.0000    constr:    0.0000
     atom:   38    charge:    1.5135    magn:   -0.0000    constr:    0.0000
     atom:   39    charge:    1.5089    magn:   -0.0000    constr:    0.0000
     atom:   40    charge:    1.5075    magn:   -0.0000    constr:    0.0000
     atom:   41    charge:    1.4728    magn:    0.0000    constr:    0.0000
     atom:   42    charge:    1.4669    magn:   -0.0000    constr:    0.0000
     atom:   43    charge:    1.4817    magn:    0.0000    constr:    0.0000
     atom:   44    charge:    1.4790    magn:   -0.0000    constr:    0.0000
     atom:   45    charge:    1.4894    magn:    0.0000    constr:    0.0000
     atom:   46    charge:    1.4794    magn:   -0.0000    constr:    0.0000
     atom:   47    charge:    1.4815    magn:    0.0000    constr:    0.0000
     atom:   48    charge:    1.5176    magn:   -0.0000    constr:    0.0000
     atom:   49    charge:    1.5056    magn:    0.0000    constr:    0.0000
     atom:   50    charge:    1.4796    magn:   -0.0000    constr:    0.0000
     atom:   51    charge:    1.5058    magn:    0.0000    constr:    0.0000
     atom:   52    charge:    1.5176    magn:   -0.0000    constr:    0.0000

     total cpu time spent up to now is     9027.1 secs

     total energy              =    -950.36204101 Ry
     Harris-Foulkes estimate   =    -950.36204078 Ry
     estimated scf accuracy    <       0.00001301 Ry

     total magnetization       =     0.00 Bohr mag/cell
     absolute magnetization    =     0.01 Bohr mag/cell

     iteration #101     ecut=    70.00 Ry     beta= 0.70
     Davidson diagonalization with overlap
     ethr =  2.58E-09,  avg # of iterations =  2.0

     negative rho (up, down):  1.143E-03 8.868E-03

     total cpu time spent up to now is     9111.9 secs

     total energy              =    -950.36204108 Ry
     Harris-Foulkes estimate   =    -950.36204125 Ry
     estimated scf accuracy    <       0.00003701 Ry

     total magnetization       =    -0.00 Bohr mag/cell
     absolute magnetization    =     0.01 Bohr mag/cell

     iteration #102     ecut=    70.00 Ry     beta= 0.70
     Davidson diagonalization with overlap
     ethr =  2.58E-09,  avg # of iterations =  2.0

     negative rho (up, down):  1.144E-03 9.781E-03

     total cpu time spent up to now is     9196.1 secs

     total energy              =    -950.36204064 Ry
     Harris-Foulkes estimate   =    -950.36204144 Ry
     estimated scf accuracy    <       0.00003713 Ry

     total magnetization       =    -0.00 Bohr mag/cell
     absolute magnetization    =     0.01 Bohr mag/cell

     iteration #103     ecut=    70.00 Ry     beta= 0.70
     Davidson diagonalization with overlap
     ethr =  2.58E-09,  avg # of iterations =  2.5

     negative rho (up, down):  1.144E-03 1.211E-02

     total cpu time spent up to now is     9282.3 secs

     total energy              =    -950.36204070 Ry
     Harris-Foulkes estimate   =    -950.36204115 Ry
     estimated scf accuracy    <       0.00004674 Ry

     total magnetization       =     0.00 Bohr mag/cell
     absolute magnetization    =     0.01 Bohr mag/cell

     iteration #104     ecut=    70.00 Ry     beta= 0.70
     Davidson diagonalization with overlap
     ethr =  2.58E-09,  avg # of iterations =  2.0

     negative rho (up, down):  1.144E-03 8.629E-03

     total cpu time spent up to now is     9366.1 secs

     total energy              =    -950.36204015 Ry
     Harris-Foulkes estimate   =    -950.36204093 Ry
     estimated scf accuracy    <       0.00001632 Ry

     total magnetization       =    -0.00 Bohr mag/cell
     absolute magnetization    =     0.01 Bohr mag/cell

     iteration #105     ecut=    70.00 Ry     beta= 0.70
     Davidson diagonalization with overlap
     ethr =  2.58E-09,  avg # of iterations =  2.0

     negative rho (up, down):  1.143E-03 1.559E-03

     total cpu time spent up to now is     9452.2 secs

     total energy              =    -950.36204047 Ry
     Harris-Foulkes estimate   =    -950.36204069 Ry
     estimated scf accuracy    <       0.00000375 Ry

     total magnetization       =     0.00 Bohr mag/cell
     absolute magnetization    =     0.00 Bohr mag/cell

     iteration #106     ecut=    70.00 Ry     beta= 0.70
     Davidson diagonalization with overlap
     ethr =  1.73E-09,  avg # of iterations =  2.0

     negative rho (up, down):  1.143E-03 1.288E-03

     total cpu time spent up to now is     9536.7 secs

     total energy              =    -950.36204054 Ry
     Harris-Foulkes estimate   =    -950.36204070 Ry
     estimated scf accuracy    <       0.00000164 Ry

     total magnetization       =    -0.00 Bohr mag/cell
     absolute magnetization    =     0.00 Bohr mag/cell

     iteration #107     ecut=    70.00 Ry     beta= 0.70
     Davidson diagonalization with overlap
     ethr =  7.57E-10,  avg # of iterations =  2.0

     negative rho (up, down):  1.143E-03 1.174E-03

     total cpu time spent up to now is     9621.1 secs

     total energy              =    -950.36204063 Ry
     Harris-Foulkes estimate   =    -950.36204069 Ry
     estimated scf accuracy    <       0.00000112 Ry

     total magnetization       =     0.00 Bohr mag/cell
     absolute magnetization    =     0.00 Bohr mag/cell

     iteration #108     ecut=    70.00 Ry     beta= 0.70
     Davidson diagonalization with overlap
     ethr =  5.19E-10,  avg # of iterations =  2.0

     negative rho (up, down):  1.143E-03 3.312E-03

     total cpu time spent up to now is     9706.0 secs

     total energy              =    -950.36204045 Ry
     Harris-Foulkes estimate   =    -950.36204070 Ry
     estimated scf accuracy    <       0.00000501 Ry

     total magnetization       =     0.00 Bohr mag/cell
     absolute magnetization    =     0.00 Bohr mag/cell

     iteration #109     ecut=    70.00 Ry     beta= 0.70
     Davidson diagonalization with overlap
     ethr =  5.19E-10,  avg # of iterations =  2.5

     negative rho (up, down):  1.143E-03 2.021E-03

     total cpu time spent up to now is     9794.2 secs

     total energy              =    -950.36204053 Ry
     Harris-Foulkes estimate   =    -950.36204072 Ry
     estimated scf accuracy    <       0.00000421 Ry

     total magnetization       =    -0.00 Bohr mag/cell
     absolute magnetization    =     0.00 Bohr mag/cell

     iteration #110     ecut=    70.00 Ry     beta= 0.70
     Davidson diagonalization with overlap
     ethr =  5.19E-10,  avg # of iterations =  2.0

     negative rho (up, down):  1.143E-03 2.075E-03

     total cpu time spent up to now is     9880.0 secs

     total energy              =    -950.36204062 Ry
     Harris-Foulkes estimate   =    -950.36204066 Ry
     estimated scf accuracy    <       0.00000187 Ry

     total magnetization       =     0.00 Bohr mag/cell
     absolute magnetization    =     0.00 Bohr mag/cell

     iteration #111     ecut=    70.00 Ry     beta= 0.70
     Davidson diagonalization with overlap
     ethr =  5.19E-10,  avg # of iterations =  2.0

     negative rho (up, down):  1.143E-03 2.170E-03

     total cpu time spent up to now is     9963.1 secs

     total energy              =    -950.36204062 Ry
     Harris-Foulkes estimate   =    -950.36204065 Ry
     estimated scf accuracy    <       0.00000157 Ry

     total magnetization       =    -0.00 Bohr mag/cell
     absolute magnetization    =     0.00 Bohr mag/cell

     iteration #112     ecut=    70.00 Ry     beta= 0.70
     Davidson diagonalization with overlap
     ethr =  5.19E-10,  avg # of iterations =  1.0

     negative rho (up, down):  1.143E-03 1.545E-03

     total cpu time spent up to now is    10045.5 secs

     total energy              =    -950.36204064 Ry
     Harris-Foulkes estimate   =    -950.36204062 Ry
     estimated scf accuracy    <       0.00000056 Ry

     total magnetization       =     0.00 Bohr mag/cell
     absolute magnetization    =     0.00 Bohr mag/cell

     iteration #113     ecut=    70.00 Ry     beta= 0.70
     Davidson diagonalization with overlap
     ethr =  2.58E-10,  avg # of iterations =  2.0

     negative rho (up, down):  1.143E-03 3.327E-03

     total cpu time spent up to now is    10131.3 secs

     total energy              =    -950.36204069 Ry
     Harris-Foulkes estimate   =    -950.36204069 Ry
[...]

     negative rho (up, down):  1.145E-03 1.853E-01

     total cpu time spent up to now is    84193.8 secs

     total energy              =    -950.45876560 Ry
     Harris-Foulkes estimate   =    -950.45888032 Ry
     estimated scf accuracy    <       0.02793057 Ry

     total magnetization       =    -0.00 Bohr mag/cell
     absolute magnetization    =     0.27 Bohr mag/cell

     iteration #378     ecut=    70.00 Ry     beta= 0.70
     Davidson diagonalization with overlap
     ethr =  1.43E-09,  avg # of iterations =  5.0

     negative rho (up, down):  1.317E-03 1.724E-01

     total cpu time spent up to now is    84338.3 secs

     total energy              =    -950.45799834 Ry
     Harris-Foulkes estimate   =    -950.45889791 Ry
     estimated scf accuracy    <       0.02018060 Ry

     total magnetization       =     0.00 Bohr mag/cell
     absolute magnetization    =     0.22 Bohr mag/cell

     iteration #379     ecut=    70.00 Ry     beta= 0.70
     Davidson diagonalization with overlap
     ethr =  1.43E-09,  avg # of iterations =  5.0

     negative rho (up, down):  1.298E-03 1.185E-01

     total cpu time spent up to now is    84505.3 secs

     total energy              =    -950.45840972 Ry
     Harris-Foulkes estimate   =    -950.45849031 Ry
     estimated scf accuracy    <       0.00898132 Ry

     total magnetization       =     0.00 Bohr mag/cell
     absolute magnetization    =     0.16 Bohr mag/cell

     iteration #380     ecut=    70.00 Ry     beta= 0.70
     Davidson diagonalization with overlap
     ethr =  1.43E-09,  avg # of iterations =  4.0

     negative rho (up, down):  1.214E-03 9.927E-02

     total cpu time spent up to now is    84617.6 secs

     total energy              =    -950.45817032 Ry
     Harris-Foulkes estimate   =    -950.45843399 Ry
     estimated scf accuracy    <       0.00369563 Ry

     total magnetization       =     0.00 Bohr mag/cell
     absolute magnetization    =     0.11 Bohr mag/cell

     iteration #381     ecut=    70.00 Ry     beta= 0.70
     Davidson diagonalization with overlap
     ethr =  1.43E-09,  avg # of iterations =  5.0

     negative rho (up, down):  2.184E-03 2.602E-02

     total cpu time spent up to now is    84773.3 secs

     total energy              =    -950.45783020 Ry
     Harris-Foulkes estimate   =    -950.45868104 Ry
     estimated scf accuracy    <       0.01700370 Ry

     total magnetization       =     0.15 Bohr mag/cell
     absolute magnetization    =     0.23 Bohr mag/cell

     iteration #382     ecut=    70.00 Ry     beta= 0.70
     Davidson diagonalization with overlap
     ethr =  1.43E-09,  avg # of iterations =  5.0

     negative rho (up, down):  1.429E-03 5.693E-02

     total cpu time spent up to now is    84947.8 secs

     total energy              =    -950.45828645 Ry
     Harris-Foulkes estimate   =    -950.45852637 Ry
     estimated scf accuracy    <       0.00528599 Ry

     total magnetization       =    -0.00 Bohr mag/cell
     absolute magnetization    =     0.10 Bohr mag/cell

     iteration #383     ecut=    70.00 Ry     beta= 0.70
     Davidson diagonalization with overlap
     ethr =  1.43E-09,  avg # of iterations =  5.0

     negative rho (up, down):  1.142E-03 3.186E-02

     total cpu time spent up to now is    85089.5 secs

     total energy              =    -950.45825001 Ry
     Harris-Foulkes estimate   =    -950.45830453 Ry
     estimated scf accuracy    <       0.00104427 Ry

     total magnetization       =     0.16 Bohr mag/cell
     absolute magnetization    =     0.20 Bohr mag/cell

     iteration #384     ecut=    70.00 Ry     beta= 0.70
     Davidson diagonalization with overlap
     ethr =  1.43E-09,  avg # of iterations =  5.0

     negative rho (up, down):  1.163E-03 4.859E-02

     total cpu time spent up to now is    85232.2 secs

     total energy              =    -950.45846445 Ry
     Harris-Foulkes estimate   =    -950.45850458 Ry
     estimated scf accuracy    <       0.00282899 Ry

     total magnetization       =    -0.00 Bohr mag/cell
     absolute magnetization    =     0.09 Bohr mag/cell

     iteration #385     ecut=    70.00 Ry     beta= 0.70
     Davidson diagonalization with overlap
     ethr =  1.43E-09,  avg # of iterations =  4.0

     negative rho (up, down):  1.131E-03 7.534E-02

     total cpu time spent up to now is    85356.1 secs

     total energy              =    -950.45846714 Ry
     Harris-Foulkes estimate   =    -950.45848479 Ry
     estimated scf accuracy    <       0.00279846 Ry

     total magnetization       =     0.00 Bohr mag/cell
     absolute magnetization    =     0.10 Bohr mag/cell

     iteration #386     ecut=    70.00 Ry     beta= 0.70
     Davidson diagonalization with overlap
     ethr =  1.43E-09,  avg # of iterations =  3.0

     negative rho (up, down):  1.128E-03 7.659E-02

     total cpu time spent up to now is    85447.4 secs

     total energy              =    -950.45842042 Ry
     Harris-Foulkes estimate   =    -950.45846843 Ry
     estimated scf accuracy    <       0.00212145 Ry

     total magnetization       =    -0.00 Bohr mag/cell
     absolute magnetization    =     0.09 Bohr mag/cell

     iteration #387     ecut=    70.00 Ry     beta= 0.70
     Davidson diagonalization with overlap
     ethr =  1.43E-09,  avg # of iterations =  4.0

     negative rho (up, down):  1.136E-03 7.286E-02

     total cpu time spent up to now is    85561.6 secs

     total energy              =    -950.45845207 Ry
     Harris-Foulkes estimate   =    -950.45845205 Ry
     estimated scf accuracy    <       0.00183437 Ry

     total magnetization       =     0.00 Bohr mag/cell
     absolute magnetization    =     0.09 Bohr mag/cell

     iteration #388     ecut=    70.00 Ry     beta= 0.70
     Davidson diagonalization with overlap
     ethr =  1.43E-09,  avg # of iterations =  3.0

     negative rho (up, down):  1.141E-03 6.792E-02

     total cpu time spent up to now is    85653.1 secs

     total energy              =    -950.45838733 Ry
     Harris-Foulkes estimate   =    -950.45845348 Ry
     estimated scf accuracy    <       0.00122697 Ry

     total magnetization       =    -0.00 Bohr mag/cell
     absolute magnetization    =     0.08 Bohr mag/cell

     iteration #389     ecut=    70.00 Ry     beta= 0.70
     Davidson diagonalization with overlap
     ethr =  1.43E-09,  avg # of iterations =  4.0

     negative rho (up, down):  1.178E-03 8.903E-02

     total cpu time spent up to now is    85794.9 secs

     total energy              =    -950.45840213 Ry
     Harris-Foulkes estimate   =    -950.45842124 Ry
     estimated scf accuracy    <       0.00614296 Ry

     total magnetization       =     0.16 Bohr mag/cell
     absolute magnetization    =     0.27 Bohr mag/cell

     iteration #390     ecut=    70.00 Ry     beta= 0.70
     Davidson diagonalization with overlap
     ethr =  1.43E-09,  avg # of iterations =  2.5

     negative rho (up, down):  1.204E-03 1.102E-01

     total cpu time spent up to now is    85887.4 secs

     total energy              =    -950.45823786 Ry
     Harris-Foulkes estimate   =    -950.45840284 Ry
     estimated scf accuracy    <       0.00569472 Ry

     total magnetization       =     0.16 Bohr mag/cell
     absolute magnetization    =     0.27 Bohr mag/cell

     iteration #391     ecut=    70.00 Ry     beta= 0.70
     Davidson diagonalization with overlap
     ethr =  1.43E-09,  avg # of iterations =  4.0

     negative rho (up, down):  1.141E-03 4.984E-02

     total cpu time spent up to now is    86025.1 secs

     total energy              =    -950.45842630 Ry
     Harris-Foulkes estimate   =    -950.45841968 Ry
     estimated scf accuracy    <       0.00009006 Ry

     total magnetization       =     0.00 Bohr mag/cell
     absolute magnetization    =     0.05 Bohr mag/cell

     iteration #392     ecut=    70.00 Ry     beta= 0.70
     Davidson diagonalization with overlap
     ethr =  1.43E-09,  avg # of iterations =  3.0

     negative rho (up, down):  1.134E-03 3.891E-02

     total cpu time spent up to now is    86133.8 secs

     total energy              =    -950.45832048 Ry
     Harris-Foulkes estimate   =    -950.45831131 Ry
     estimated scf accuracy    <       0.00040291 Ry

     total magnetization       =     0.16 Bohr mag/cell
     absolute magnetization    =     0.20 Bohr mag/cell

     iteration #393     ecut=    70.00 Ry     beta= 0.70
     Davidson diagonalization with overlap
     ethr =  1.43E-09,  avg # of iterations =  3.0

     negative rho (up, down):  1.131E-03 2.143E-02

     total cpu time spent up to now is    86232.7 secs

     total energy              =    -950.45842668 Ry
     Harris-Foulkes estimate   =    -950.45842842 Ry
     estimated scf accuracy    <       0.00005335 Ry

     total magnetization       =     0.00 Bohr mag/cell
     absolute magnetization    =     0.04 Bohr mag/cell

     iteration #394     ecut=    70.00 Ry     beta= 0.70
     Davidson diagonalization with overlap
     ethr =  1.43E-09,  avg # of iterations =  3.5

     negative rho (up, down):  1.130E-03 1.252E-02

     total cpu time spent up to now is    86331.6 secs

     total energy              =    -950.45842629 Ry
     Harris-Foulkes estimate   =    -950.45843003 Ry
     estimated scf accuracy    <       0.00007226 Ry

     total magnetization       =     0.00 Bohr mag/cell
     absolute magnetization    =     0.04 Bohr mag/cell

     iteration #395     ecut=    70.00 Ry     beta= 0.70
     Davidson diagonalization with overlap
     ethr =  1.43E-09,  avg # of iterations =  3.0

     negative rho (up, down):  1.131E-03 1.154E-02

     total cpu time spent up to now is    86425.5 secs

     total energy              =    -950.45842783 Ry
     Harris-Foulkes estimate   =    -950.45842810 Ry
     estimated scf accuracy    <       0.00005168 Ry

     total magnetization       =    -0.00 Bohr mag/cell
     absolute magnetization    =     0.04 Bohr mag/cell

     iteration #396     ecut=    70.00 Ry     beta= 0.70
     Davidson diagonalization with overlap
     ethr =  1.43E-09,  avg # of iterations =  2.5

     negative rho (up, down):  1.131E-03 1.503E-02

     total cpu time spent up to now is    86512.8 secs

     total energy              =    -950.45842678 Ry
     Harris-Foulkes estimate   =    -950.45842831 Ry
     estimated scf accuracy    <       0.00008856 Ry

     total magnetization       =    -0.00 Bohr mag/cell
     absolute magnetization    =     0.04 Bohr mag/cell

     iteration #397     ecut=    70.00 Ry     beta= 0.70
     Davidson diagonalization with overlap
     ethr =  1.43E-09,  avg # of iterations =  2.5

     negative rho (up, down):  1.132E-03 1.147E-02

     total cpu time spent up to now is    86602.0 secs

     total energy              =    -950.45842491 Ry
     Harris-Foulkes estimate   =    -950.45842770 Ry
     estimated scf accuracy    <       0.00004851 Ry

     total magnetization       =     0.00 Bohr mag/cell
     absolute magnetization    =     0.04 Bohr mag/cell

     iteration #398     ecut=    70.00 Ry     beta= 0.70
     Davidson diagonalization with overlap
     ethr =  1.43E-09,  avg # of iterations =  3.0

     negative rho (up, down):  1.131E-03 1.259E-02

     total cpu time spent up to now is    86699.5 secs

     total energy              =    -950.45844018 Ry
     Harris-Foulkes estimate   =    -950.45842867 Ry
     estimated scf accuracy    <       0.00010775 Ry

     total magnetization       =    -0.00 Bohr mag/cell
     absolute magnetization    =     0.04 Bohr mag/cell

     iteration #399     ecut=    70.00 Ry     beta= 0.70
     Davidson diagonalization with overlap
     ethr =  1.43E-09,  avg # of iterations =  3.5

     negative rho (up, down):  1.153E-03 5.056E-02

     total cpu time spent up to now is    86815.9 secs

     total energy              =    -950.45843973 Ry
     Harris-Foulkes estimate   =    -950.45845404 Ry
     estimated scf accuracy    <       0.00124849 Ry

     total magnetization       =     0.00 Bohr mag/cell
     absolute magnetization    =     0.07 Bohr mag/cell

     iteration #400     ecut=    70.00 Ry     beta= 0.70
     Davidson diagonalization with overlap
     ethr =  1.43E-09,  avg # of iterations =  3.0

     negative rho (up, down):  1.147E-03 4.213E-02

     Magnetic moment per site:
     atom:    1    charge:    0.2110    magn:   -0.0000    constr:    0.0000
     atom:    2    charge:    0.2107    magn:   -0.0000    constr:    0.0000
     atom:    3    charge:    1.4929    magn:    0.0003    constr:    0.0000
     atom:    4    charge:    1.4919    magn:   -0.0002    constr:    0.0000
     atom:    5    charge:    1.4892    magn:    0.0005    constr:    0.0000
     atom:    6    charge:    1.4832    magn:   -0.0003    constr:    0.0000
     atom:    7    charge:    1.4891    magn:    0.0005    constr:    0.0000
     atom:    8    charge:    1.4929    magn:   -0.0002    constr:    0.0000
     atom:    9    charge:    1.4929    magn:    0.0003    constr:    0.0000
     atom:   10    charge:    1.4913    magn:   -0.0002    constr:    0.0000
     atom:   11    charge:    1.4900    magn:    0.0001    constr:    0.0000
     atom:   12    charge:    1.4910    magn:   -0.0002    constr:    0.0000
     atom:   13    charge:    1.4896    magn:    0.0001    constr:    0.0000
     atom:   14    charge:    1.4824    magn:   -0.0001    constr:    0.0000
     atom:   15    charge:    1.4846    magn:    0.0001    constr:    0.0000
     atom:   16    charge:    1.4855    magn:   -0.0003    constr:    0.0000
     atom:   17    charge:    1.4829    magn:    0.0012    constr:    0.0000
     atom:   18    charge:    1.4857    magn:   -0.0003    constr:    0.0000
     atom:   19    charge:    1.4845    magn:    0.0001    constr:    0.0000
     atom:   20    charge:    1.4822    magn:   -0.0002    constr:    0.0000
     atom:   21    charge:    1.4898    magn:    0.0001    constr:    0.0000
     atom:   22    charge:    1.4912    magn:   -0.0002    constr:    0.0000
     atom:   23    charge:    1.4919    magn:    0.0003    constr:    0.0000
     atom:   24    charge:    1.4920    magn:   -0.0002    constr:    0.0000
     atom:   25    charge:    1.4829    magn:    0.0001    constr:    0.0000
     atom:   26    charge:    1.4897    magn:   -0.0003    constr:    0.0000
     atom:   27    charge:    1.4631    magn:    0.0008    constr:    0.0000
     atom:   28    charge:   14.8767    magn:    0.0018    constr:    0.0000
     atom:   29    charge:    1.4630    magn:    0.0012    constr:    0.0000
     atom:   30    charge:    1.4864    magn:   -0.0003    constr:    0.0000
     atom:   31    charge:    1.4833    magn:    0.0001    constr:    0.0000
     atom:   32    charge:    1.4925    magn:   -0.0002    constr:    0.0000
     atom:   33    charge:    1.4890    magn:    0.0005    constr:    0.0000
     atom:   34    charge:    1.4965    magn:   -0.0004    constr:    0.0000
     atom:   35    charge:    1.4883    magn:    0.0005    constr:    0.0000
     atom:   36    charge:    1.4848    magn:   -0.0003    constr:    0.0000
     atom:   37    charge:    1.4858    magn:    0.0012    constr:    0.0000
     atom:   38    charge:    1.4902    magn:   -0.0003    constr:    0.0000
     atom:   39    charge:    1.4578    magn:    0.0008    constr:    0.0000
     atom:   40    charge:    1.4863    magn:   -0.0003    constr:    0.0000
     atom:   41    charge:    1.4838    magn:    0.0012    constr:    0.0000
     atom:   42    charge:    1.4833    magn:   -0.0003    constr:    0.0000
     atom:   43    charge:    1.4894    magn:    0.0005    constr:    0.0000
     atom:   44    charge:    1.4964    magn:   -0.0004    constr:    0.0000
     atom:   45    charge:    1.5029    magn:    0.0019    constr:    0.0000
     atom:   46    charge:    1.4967    magn:   -0.0004    constr:    0.0000
     atom:   47    charge:    1.4887    magn:    0.0005    constr:    0.0000
     atom:   48    charge:    1.4922    magn:   -0.0002    constr:    0.0000
     atom:   49    charge:    1.4840    magn:    0.0001    constr:    0.0000
     atom:   50    charge:    1.4830    magn:   -0.0001    constr:    0.0000
     atom:   51    charge:    1.4843    magn:    0.0001    constr:    0.0000
     atom:   52    charge:    1.4917    magn:   -0.0002    constr:    0.0000

     total cpu time spent up to now is    86923.8 secs

     total energy              =    -950.45843322 Ry
     Harris-Foulkes estimate   =    -950.45844659 Ry
     estimated scf accuracy    <       0.00044964 Ry

     total magnetization       =    -0.00 Bohr mag/cell
     absolute magnetization    =     0.06 Bohr mag/cell

     End of self-consistent calculation

     convergence NOT achieved after 400 iterations: stopping

     Writing output data file niquel.save/

     init_run     :     71.58s CPU     73.12s WALL (       1 calls)
     electrons    :  79800.66s CPU  86535.72s WALL (       5 calls)
     update_pot   :     74.18s CPU     74.41s WALL (       4 calls)
     forces       :    205.99s CPU    209.58s WALL (       4 calls)

     Called by init_run:
     wfcinit      :     50.08s CPU     50.42s WALL (       1 calls)
     wfcinit:atom :      0.08s CPU      0.12s WALL (       2 calls)
     wfcinit:wfcr :     49.59s CPU     49.84s WALL (       2 calls)
     potinit      :      6.04s CPU      6.19s WALL (       1 calls)
     hinit0       :      7.02s CPU      7.06s WALL (       1 calls)

     Called by electrons:
     c_bands      :  55665.71s CPU  61450.28s WALL (     819 calls)
     sum_band     :  16243.30s CPU  16728.51s WALL (     819 calls)
     v_of_rho     :   1561.04s CPU   1596.24s WALL (     824 calls)
     v_h          :     59.82s CPU     61.29s WALL (     824 calls)
     v_xc         :   1508.37s CPU   1542.37s WALL (     828 calls)
     newd         :   5812.11s CPU   6235.46s WALL (     824 calls)
     mix_rho      :    376.92s CPU    382.30s WALL (     819 calls)

     Called by c_bands:
     init_us_2    :    147.59s CPU    147.84s WALL (    3286 calls)
     cegterg      :  55260.26s CPU  61042.82s WALL (    1638 calls)

     Called by sum_band:
     sum_band:bec :      1.34s CPU      1.35s WALL (    1638 calls)
     addusdens    :  10111.40s CPU  10560.25s WALL (     819 calls)

     Called by *egterg:
     h_psi        :  26710.16s CPU  26911.98s WALL (    6163 calls)
     s_psi        :   8919.27s CPU  14413.77s WALL (    6163 calls)
     g_psi        :     34.05s CPU     34.15s WALL (    4523 calls)
     cdiaghg      :    495.26s CPU    495.47s WALL (    6153 calls)
     cegterg:over :   7969.49s CPU   7972.23s WALL (    4523 calls)
     cegterg:upda :   5068.23s CPU   5091.92s WALL (    4523 calls)
     cegterg:last :   3363.37s CPU   3364.05s WALL (    1688 calls)

     Called by h_psi:
     h_psi:pot    :  26675.80s CPU  26840.73s WALL (    6163 calls)
     h_psi:calbec :   8949.63s CPU   8956.11s WALL (    6163 calls)
     vloc_psi     :   8814.67s CPU   8970.89s WALL (    6163 calls)
     add_vuspsi   :   8911.41s CPU   8913.70s WALL (    6163 calls)

     General routines
     calbec       :  12675.40s CPU  12683.24s WALL (    7833 calls)
     fft          :   1238.42s CPU   1271.89s WALL (   20654 calls)
     ffts         :     57.12s CPU     58.92s WALL (    3286 calls)
     fftw         :   9415.19s CPU   9587.67s WALL ( 1262782 calls)
     interpolate  :    136.16s CPU    139.95s WALL (    1648 calls)
     davcio       :      0.01s CPU      0.12s WALL (      20 calls)

     Parallel routines
     fft_scatt_xy :   1883.59s CPU   1915.32s WALL ( 1286722 calls)
     fft_scatt_yz :   3774.62s CPU   3906.28s WALL ( 1286722 calls)

     PWSCF        :     22h16m CPU   1d 0h 8m WALL


   This run was terminated on:   9:18:21   9Apr2023            

=------------------------------------------------------------------------------=
   JOB DONE.
=------------------------------------------------------------------------------=
