
     Program PWSCF v.6.4.1 starts on 26Jul2022 at 15: 8:40 

     This program is part of the open-source Quantum ESPRESSO suite
     for quantum simulation of materials; please cite
         "P. Giannozzi et al., J. Phys.:Condens. Matter 21 395502 (2009);
         "P. Giannozzi et al., J. Phys.:Condens. Matter 29 465901 (2017);
          URL http://www.quantum-espresso.org", 
     in publications or presentations arising from this work. More details at
     http://www.quantum-espresso.org/quote

     Parallel version (MPI), running on     6 processors

     MPI processes distributed on     1 nodes
     R & G space division:  proc/nbgrp/npool/nimage =       6
     Reading input from distance-2.4.in

     Current dimensions of program PWSCF are:
     Max number of different atomic species (ntypx) = 10
     Max number of k-points (npk) =  40000
     Max angular momentum in pseudopotentials (lmaxx) =  3

     IMPORTANT: XC functional enforced from input :
     Exchange-correlation      = RVV10 ( 1  4 13  4 3 0)
     Any further DFT definition will be discarded
     Please, verify this is what you really want

               file H.pbe-rrkjus.UPF: wavefunction(s)  1S renormalized
               file Cu.pbe-dn-rrkjus_psl.1.0.0.UPF: wavefunction(s)  3D renormalized

     Subspace diagonalization in iterative solution of the eigenvalue problem:
     a serial algorithm will be used


     Parallelization info
     --------------------
     sticks:   dense  smooth     PW     G-vecs:    dense   smooth      PW
     Min        3051    1746    432               270999   117096   14629
     Max        3053    1747    437               271001   117099   14630
     Sum       18313   10477   2611              1626001   702581   87777



     bravais-lattice index     =            4
     lattice parameter (alat)  =      23.2937  a.u.
     unit-cell volume          =    8879.8548 (a.u.)^3
     number of atoms/cell      =           52
     number of atomic types    =            3
     number of electrons       =       209.00
     number of Kohn-Sham states=          126
     kinetic-energy cutoff     =      70.0000  Ry
     charge density cutoff     =     490.0000  Ry
     convergence threshold     =      1.0E-06
     mixing beta               =       0.7000
     number of iterations used =            8  plain     mixing
     Exchange-correlation      = RVV10 ( 1  4 13  4 3 0)

     celldm(1)=  23.293684  celldm(2)=   0.000000  celldm(3)=   0.811261
     celldm(4)=   0.000000  celldm(5)=   0.000000  celldm(6)=   0.000000

     crystal axes: (cart. coord. in units of alat)
               a(1) = (   1.000000   0.000000   0.000000 )  
               a(2) = (  -0.500000   0.866025   0.000000 )  
               a(3) = (   0.000000   0.000000   0.811261 )  

     reciprocal axes: (cart. coord. in units 2 pi/alat)
               b(1) = (  1.000000  0.577350 -0.000000 )  
               b(2) = (  0.000000  1.154701  0.000000 )  
               b(3) = (  0.000000 -0.000000  1.232649 )  


     PseudoPot. # 1 for H  read from file:
     /home/cristian/Escritorio/Proyecto_Grafeno/pseudopotenciales/H.pbe-rrkjus.UPF
     MD5 check sum: 7cc9d459525c9a0585f487a71c3c9563
     Pseudo is Ultrasoft, Zval =  1.0
     Generated by new atomic code, or converted to UPF format
     Using radial grid of 1061 points,  2 beta functions with: 
                l(1) =   0
                l(2) =   0
     Q(r) pseudized with 0 coefficients 


     PseudoPot. # 2 for C  read from file:
     /home/cristian/Escritorio/Proyecto_Grafeno/pseudopotenciales/C.pbe-n-rrkjus_psl.1.0.0.UPF
     MD5 check sum: 1fdd950c42eb37d8afe3dd2f8d12311e
     Pseudo is Ultrasoft + core correction, Zval =  4.0
     Generated using "atomic" code by A. Dal Corso v.6.3MaX
     Using radial grid of 1073 points,  4 beta functions with: 
                l(1) =   0
                l(2) =   0
                l(3) =   1
                l(4) =   1
     Q(r) pseudized with 0 coefficients 


     PseudoPot. # 3 for Cu read from file:
     /home/cristian/Escritorio/Proyecto_Grafeno/pseudopotenciales/Cu.pbe-dn-rrkjus_psl.1.0.0.UPF
     MD5 check sum: ba3d6c84e19846e79d48cdc68ff7152b
     Pseudo is Ultrasoft + core correction, Zval = 11.0
     Generated using "atomic" code by A. Dal Corso v.6.3
     Using radial grid of 1199 points,  6 beta functions with: 
                l(1) =   0
                l(2) =   0
                l(3) =   1
                l(4) =   1
                l(5) =   2
                l(6) =   2
     Q(r) pseudized with 0 coefficients 


     vdW kernel table read from file rVV10_kernel_table
     MD5 check sum: b8e2538accc0c0b3206b45ba4daaba6c

     atomic species   valence    mass     pseudopotential
        H              1.00     1.00794     H ( 1.00)
        C              4.00    12.01070     C ( 1.00)
        Cu            11.00    63.54600     Cu( 1.00)

     No symmetry found


                                    s                        frac. trans.

      isym =  1     identity                                     

 cryst.   s( 1) = (     1          0          0      )
                  (     0          1          0      )
                  (     0          0          1      )

 cart.    s( 1) = (  1.0000000  0.0000000  0.0000000 )
                  (  0.0000000  1.0000000  0.0000000 )
                  (  0.0000000  0.0000000  1.0000000 )


     point group C_1 (1)    
     there are  1 classes
     the character table:

       E    
A      1.00

     the symmetry operations in each class and the name of the first element:

     E        1
          identity                                               

   Cartesian axes

     site n.     atom                  positions (alat units)
         1           H   tau(   1) = (   0.2194937   0.4330127   0.1947027  )
         2           H   tau(   2) = (   0.2805063   0.4330127   0.1947027  )
         3           C   tau(   3) = (   0.0000000   0.0000000   0.0000000  )
         4           C   tau(   4) = (   0.0000000   0.1154701   0.0000000  )
         5           C   tau(   5) = (  -0.1000000   0.1732051   0.0000000  )
         6           C   tau(   6) = (  -0.1000000   0.2886751   0.0000000  )
         7           C   tau(   7) = (  -0.2000000   0.3464102   0.0000000  )
         8           C   tau(   8) = (  -0.2000000   0.4618802   0.0000000  )
         9           C   tau(   9) = (  -0.3000000   0.5196152   0.0000000  )
        10           C   tau(  10) = (  -0.3000000   0.6350853   0.0000000  )
        11           C   tau(  11) = (  -0.4000000   0.6928203   0.0000000  )
        12           C   tau(  12) = (  -0.4000000   0.8082904   0.0000000  )
        13           C   tau(  13) = (   0.2000000   0.0000000   0.0000000  )
        14           C   tau(  14) = (   0.2000000   0.1154701   0.0000000  )
        15           C   tau(  15) = (   0.1000000   0.1732051   0.0000000  )
        16           C   tau(  16) = (   0.1000000   0.2886751   0.0000000  )
        17           C   tau(  17) = (   0.0000000   0.3464102   0.0000000  )
        18           C   tau(  18) = (   0.0000000   0.4618802   0.0000000  )
        19           C   tau(  19) = (  -0.1000000   0.5196152   0.0000000  )
        20           C   tau(  20) = (  -0.1000000   0.6350853   0.0000000  )
        21           C   tau(  21) = (  -0.2000000   0.6928203   0.0000000  )
        22           C   tau(  22) = (  -0.2000000   0.8082904   0.0000000  )
        23           C   tau(  23) = (   0.4000000   0.0000000   0.0000000  )
        24           C   tau(  24) = (   0.4000000   0.1154701   0.0000000  )
        25           C   tau(  25) = (   0.3000000   0.1732051   0.0000000  )
        26           C   tau(  26) = (   0.3000000   0.2886751   0.0000000  )
        27           C   tau(  27) = (   0.2000000   0.3464102   0.0000000  )
        28           Cu  tau(  28) = (   0.2000000   0.4618802   0.0000000  )
        29           C   tau(  29) = (   0.1000000   0.5196152   0.0000000  )
        30           C   tau(  30) = (   0.1000000   0.6350853   0.0000000  )
        31           C   tau(  31) = (   0.0000000   0.6928203   0.0000000  )
        32           C   tau(  32) = (   0.0000000   0.8082904   0.0000000  )
        33           C   tau(  33) = (   0.6000000   0.0000000   0.0000000  )
        34           C   tau(  34) = (   0.6000000   0.1154701   0.0000000  )
        35           C   tau(  35) = (   0.5000000   0.1732051   0.0000000  )
        36           C   tau(  36) = (   0.5000000   0.2886751   0.0000000  )
        37           C   tau(  37) = (   0.4000000   0.3464102   0.0000000  )
        38           C   tau(  38) = (   0.4000000   0.4618802   0.0000000  )
        39           C   tau(  39) = (   0.3000000   0.5196152   0.0000000  )
        40           C   tau(  40) = (   0.3000000   0.6350853   0.0000000  )
        41           C   tau(  41) = (   0.2000000   0.6928203   0.0000000  )
        42           C   tau(  42) = (   0.2000000   0.8082904   0.0000000  )
        43           C   tau(  43) = (   0.8000000   0.0000000   0.0000000  )
        44           C   tau(  44) = (   0.8000000   0.1154701   0.0000000  )
        45           C   tau(  45) = (   0.7000000   0.1732051   0.0000000  )
        46           C   tau(  46) = (   0.7000000   0.2886751   0.0000000  )
        47           C   tau(  47) = (   0.6000000   0.3464102   0.0000000  )
        48           C   tau(  48) = (   0.6000000   0.4618802   0.0000000  )
        49           C   tau(  49) = (   0.5000000   0.5196152   0.0000000  )
        50           C   tau(  50) = (   0.5000000   0.6350853   0.0000000  )
        51           C   tau(  51) = (   0.4000000   0.6928203   0.0000000  )
        52           C   tau(  52) = (   0.4000000   0.8082904   0.0000000  )

   Crystallographic axes

     site n.     atom                  positions (cryst. coord.)
         1           H   tau(   1) = (  0.4694937  0.5000000  0.2400000  )
         2           H   tau(   2) = (  0.5305063  0.5000000  0.2400000  )
         3           C   tau(   3) = (  0.0000000  0.0000000  0.0000000  )
         4           C   tau(   4) = (  0.0666667  0.1333333  0.0000000  )
         5           C   tau(   5) = (  0.0000000  0.2000000  0.0000000  )
         6           C   tau(   6) = (  0.0666667  0.3333333  0.0000000  )
         7           C   tau(   7) = (  0.0000000  0.4000000  0.0000000  )
         8           C   tau(   8) = (  0.0666667  0.5333333  0.0000000  )
         9           C   tau(   9) = (  0.0000000  0.6000000  0.0000000  )
        10           C   tau(  10) = (  0.0666667  0.7333333  0.0000000  )
        11           C   tau(  11) = (  0.0000000  0.8000000  0.0000000  )
        12           C   tau(  12) = (  0.0666667  0.9333333  0.0000000  )
        13           C   tau(  13) = (  0.2000000  0.0000000  0.0000000  )
        14           C   tau(  14) = (  0.2666667  0.1333333  0.0000000  )
        15           C   tau(  15) = (  0.2000000  0.2000000  0.0000000  )
        16           C   tau(  16) = (  0.2666667  0.3333333  0.0000000  )
        17           C   tau(  17) = (  0.2000000  0.4000000  0.0000000  )
        18           C   tau(  18) = (  0.2666667  0.5333333  0.0000000  )
        19           C   tau(  19) = (  0.2000000  0.6000000  0.0000000  )
        20           C   tau(  20) = (  0.2666667  0.7333333  0.0000000  )
        21           C   tau(  21) = (  0.2000000  0.8000000  0.0000000  )
        22           C   tau(  22) = (  0.2666667  0.9333333  0.0000000  )
        23           C   tau(  23) = (  0.4000000  0.0000000  0.0000000  )
        24           C   tau(  24) = (  0.4666667  0.1333333  0.0000000  )
        25           C   tau(  25) = (  0.4000000  0.2000000  0.0000000  )
        26           C   tau(  26) = (  0.4666667  0.3333333  0.0000000  )
        27           C   tau(  27) = (  0.4000000  0.4000000  0.0000000  )
        28           Cu  tau(  28) = (  0.4666667  0.5333333  0.0000000  )
        29           C   tau(  29) = (  0.4000000  0.6000000  0.0000000  )
        30           C   tau(  30) = (  0.4666667  0.7333333  0.0000000  )
        31           C   tau(  31) = (  0.4000000  0.8000000  0.0000000  )
        32           C   tau(  32) = (  0.4666667  0.9333333  0.0000000  )
        33           C   tau(  33) = (  0.6000000  0.0000000  0.0000000  )
        34           C   tau(  34) = (  0.6666667  0.1333333  0.0000000  )
        35           C   tau(  35) = (  0.6000000  0.2000000  0.0000000  )
        36           C   tau(  36) = (  0.6666667  0.3333333  0.0000000  )
        37           C   tau(  37) = (  0.6000000  0.4000000  0.0000000  )
        38           C   tau(  38) = (  0.6666667  0.5333333  0.0000000  )
        39           C   tau(  39) = (  0.6000000  0.6000000  0.0000000  )
        40           C   tau(  40) = (  0.6666667  0.7333333  0.0000000  )
        41           C   tau(  41) = (  0.6000000  0.8000000  0.0000000  )
        42           C   tau(  42) = (  0.6666667  0.9333333  0.0000000  )
        43           C   tau(  43) = (  0.8000000  0.0000000  0.0000000  )
        44           C   tau(  44) = (  0.8666667  0.1333333  0.0000000  )
        45           C   tau(  45) = (  0.8000000  0.2000000  0.0000000  )
        46           C   tau(  46) = (  0.8666667  0.3333333  0.0000000  )
        47           C   tau(  47) = (  0.8000000  0.4000000  0.0000000  )
        48           C   tau(  48) = (  0.8666667  0.5333333  0.0000000  )
        49           C   tau(  49) = (  0.8000000  0.6000000  0.0000000  )
        50           C   tau(  50) = (  0.8666667  0.7333333  0.0000000  )
        51           C   tau(  51) = (  0.8000000  0.8000000  0.0000000  )
        52           C   tau(  52) = (  0.8666667  0.9333333  0.0000000  )

     number of k points=     1  Marzari-Vanderbilt smearing, width (Ry)=  0.0010
                       cart. coord. in units 2pi/alat
        k(    1) = (   0.0000000   0.0000000   0.0000000), wk =   2.0000000

                       cryst. coord.
        k(    1) = (   0.0000000   0.0000000   0.0000000), wk =   2.0000000

     Dense  grid:  1626001 G-vectors     FFT dimensions: ( 180, 180, 135)

     Smooth grid:   702581 G-vectors     FFT dimensions: ( 125, 125, 108)

     Dynamical RAM for                 wfc:      28.14 MB

     Dynamical RAM for     wfc (w. buffer):      28.14 MB

     Dynamical RAM for           str. fact:      12.41 MB

     Dynamical RAM for           local pot:       0.00 MB

     Dynamical RAM for          nlocal pot:      92.46 MB

     Dynamical RAM for                qrad:      19.73 MB

     Dynamical RAM for          rho,v,vnew:      29.46 MB

     Dynamical RAM for               rhoin:       9.82 MB

     Dynamical RAM for            rho*nmix:      66.16 MB

     Dynamical RAM for           G-vectors:      16.40 MB

     Dynamical RAM for          h,s,v(r/c):      11.63 MB

     Dynamical RAM for          <psi|beta>:       0.80 MB

     Dynamical RAM for                 psi:     112.56 MB

     Dynamical RAM for                hpsi:     112.56 MB

     Dynamical RAM for                spsi:     112.56 MB

     Dynamical RAM for      wfcinit/wfcrot:      93.45 MB

     Dynamical RAM for           addusdens:     971.75 MB

     Estimated static dynamical RAM per process >     319.55 MB

     Estimated max dynamical RAM per process >       1.26 GB

     Estimated total dynamical RAM >       7.57 GB

     Check: negative core charge=   -0.000002

     Initial potential from superposition of free atoms

     starting charge  208.80532, renormalised to  209.00000

     negative rho (up, down):  6.833E-05 0.000E+00


---------------------------------------------------------------------------------
Carrying out rVV10 run using the following parameters:
Nqs =      20    Nr_points =    1024   r_max =   100.000
b_value =  6.30000    beta =  0.00901
     q_mesh =  0.00010000  0.00030000  0.00058939  0.00100810
               0.00161396  0.00249058  0.00375900  0.00559430
               0.00824984  0.01209221  0.01765183  0.02569619
               0.03733578  0.05417739  0.07854596  0.11380545
               0.16482331  0.23864234  0.34545298  0.50000000

Gradients computed in Reciprocal space

---------------------------------------------------------------------------------


     Starting wfcs are  207 randomized atomic wfcs

     total cpu time spent up to now is       54.4 secs

     Self-consistent Calculation

     iteration #  1     ecut=    70.00 Ry     beta= 0.70
     Davidson diagonalization with overlap
     ethr =  1.00E-02,  avg # of iterations =  9.0

     negative rho (up, down):  1.664E-04 0.000E+00

     total cpu time spent up to now is      123.0 secs

     total energy              =    -732.50883043 Ry
     Harris-Foulkes estimate   =    -737.57936123 Ry
     estimated scf accuracy    <       7.64074925 Ry

     iteration #  2     ecut=    70.00 Ry     beta= 0.70
     Davidson diagonalization with overlap
     ethr =  3.66E-03,  avg # of iterations =  3.0

     negative rho (up, down):  2.060E-04 0.000E+00

     total cpu time spent up to now is      186.7 secs

     total energy              =    -731.94588217 Ry
     Harris-Foulkes estimate   =    -737.06004683 Ry
     estimated scf accuracy    <      10.01523263 Ry

     iteration #  3     ecut=    70.00 Ry     beta= 0.70
     Davidson diagonalization with overlap
     ethr =  3.66E-03,  avg # of iterations =  4.0

     negative rho (up, down):  2.658E-04 0.000E+00

     total cpu time spent up to now is      239.9 secs

     total energy              =    -730.65054208 Ry
     Harris-Foulkes estimate   =    -736.32223349 Ry
     estimated scf accuracy    <      25.82015535 Ry

     iteration #  4     ecut=    70.00 Ry     beta= 0.70
     Davidson diagonalization with overlap
     ethr =  3.66E-03,  avg # of iterations =  3.0

     negative rho (up, down):  2.892E-04 0.000E+00

     total cpu time spent up to now is      296.3 secs

     total energy              =    -734.30293576 Ry
     Harris-Foulkes estimate   =    -735.40228605 Ry
     estimated scf accuracy    <       6.80037976 Ry

     iteration #  5     ecut=    70.00 Ry     beta= 0.70
     Davidson diagonalization with overlap
     ethr =  3.25E-03,  avg # of iterations =  1.0

     negative rho (up, down):  3.088E-04 0.000E+00

     total cpu time spent up to now is      344.8 secs

     total energy              =    -734.72680208 Ry
     Harris-Foulkes estimate   =    -734.87635026 Ry
     estimated scf accuracy    <       0.64381411 Ry

     iteration #  6     ecut=    70.00 Ry     beta= 0.70
     Davidson diagonalization with overlap
     ethr =  3.08E-04,  avg # of iterations =  4.0

     negative rho (up, down):  3.268E-04 0.000E+00

     total cpu time spent up to now is      395.9 secs

     total energy              =    -734.73946304 Ry
     Harris-Foulkes estimate   =    -734.79100964 Ry
     estimated scf accuracy    <       0.25058235 Ry

     iteration #  7     ecut=    70.00 Ry     beta= 0.70
     Davidson diagonalization with overlap
     ethr =  1.20E-04,  avg # of iterations =  7.0

     negative rho (up, down):  3.699E-04 0.000E+00

     total cpu time spent up to now is      446.8 secs

     total energy              =    -734.73588894 Ry
     Harris-Foulkes estimate   =    -734.76385414 Ry
     estimated scf accuracy    <       0.14113045 Ry

     iteration #  8     ecut=    70.00 Ry     beta= 0.70
     Davidson diagonalization with overlap
     ethr =  6.75E-05,  avg # of iterations =  2.0

     negative rho (up, down):  4.174E-04 0.000E+00

     total cpu time spent up to now is      495.8 secs

     total energy              =    -734.73613494 Ry
     Harris-Foulkes estimate   =    -734.74873529 Ry
     estimated scf accuracy    <       0.06652247 Ry

     iteration #  9     ecut=    70.00 Ry     beta= 0.70
     Davidson diagonalization with overlap
     ethr =  3.18E-05,  avg # of iterations =  8.0

     negative rho (up, down):  4.925E-04 0.000E+00

     total cpu time spent up to now is      547.0 secs

     total energy              =    -734.73401691 Ry
     Harris-Foulkes estimate   =    -734.74243297 Ry
     estimated scf accuracy    <       0.04259430 Ry

     iteration # 10     ecut=    70.00 Ry     beta= 0.70
     Davidson diagonalization with overlap
     ethr =  2.04E-05,  avg # of iterations =  2.0

     negative rho (up, down):  5.979E-04 0.000E+00

     total cpu time spent up to now is      596.2 secs

     total energy              =    -734.73517012 Ry
     Harris-Foulkes estimate   =    -734.74183754 Ry
     estimated scf accuracy    <       0.03941026 Ry

     iteration # 11     ecut=    70.00 Ry     beta= 0.70
     Davidson diagonalization with overlap
     ethr =  1.89E-05,  avg # of iterations =  2.0

     negative rho (up, down):  6.622E-04 0.000E+00

     total cpu time spent up to now is      645.0 secs

     total energy              =    -734.73586116 Ry
     Harris-Foulkes estimate   =    -734.73683345 Ry
     estimated scf accuracy    <       0.00918735 Ry

     iteration # 12     ecut=    70.00 Ry     beta= 0.70
     Davidson diagonalization with overlap
     ethr =  4.40E-06,  avg # of iterations =  3.0

     negative rho (up, down):  6.463E-04 0.000E+00

     total cpu time spent up to now is      694.6 secs

     total energy              =    -734.73641445 Ry
     Harris-Foulkes estimate   =    -734.73719684 Ry
     estimated scf accuracy    <       0.01698006 Ry

     iteration # 13     ecut=    70.00 Ry     beta= 0.70
     Davidson diagonalization with overlap
     ethr =  4.40E-06,  avg # of iterations =  1.0

     negative rho (up, down):  6.755E-04 0.000E+00

     total cpu time spent up to now is      743.2 secs

     total energy              =    -734.73614720 Ry
     Harris-Foulkes estimate   =    -734.73666490 Ry
     estimated scf accuracy    <       0.00419127 Ry

     iteration # 14     ecut=    70.00 Ry     beta= 0.70
     Davidson diagonalization with overlap
     ethr =  2.01E-06,  avg # of iterations =  9.0

     negative rho (up, down):  6.603E-04 0.000E+00

     total cpu time spent up to now is      797.6 secs

     total energy              =    -734.73620143 Ry
     Harris-Foulkes estimate   =    -734.73692493 Ry
     estimated scf accuracy    <       0.00975994 Ry

     iteration # 15     ecut=    70.00 Ry     beta= 0.70
     Davidson diagonalization with overlap
     ethr =  2.01E-06,  avg # of iterations =  1.0

     negative rho (up, down):  6.608E-04 0.000E+00

     total cpu time spent up to now is      846.3 secs

     total energy              =    -734.73651788 Ry
     Harris-Foulkes estimate   =    -734.73655139 Ry
     estimated scf accuracy    <       0.00069536 Ry

     iteration # 16     ecut=    70.00 Ry     beta= 0.70
     Davidson diagonalization with overlap
     ethr =  3.33E-07,  avg # of iterations =  2.0

     negative rho (up, down):  6.633E-04 0.000E+00

     total cpu time spent up to now is      895.4 secs

     total energy              =    -734.73654085 Ry
     Harris-Foulkes estimate   =    -734.73654291 Ry
     estimated scf accuracy    <       0.00001188 Ry

     iteration # 17     ecut=    70.00 Ry     beta= 0.70
     Davidson diagonalization with overlap
     ethr =  5.69E-09,  avg # of iterations =  4.0

     negative rho (up, down):  6.648E-04 0.000E+00

     total cpu time spent up to now is      954.7 secs

     total energy              =    -734.73654393 Ry
     Harris-Foulkes estimate   =    -734.73654537 Ry
     estimated scf accuracy    <       0.00000847 Ry

     iteration # 18     ecut=    70.00 Ry     beta= 0.70
     Davidson diagonalization with overlap
     ethr =  4.05E-09,  avg # of iterations =  2.0

     negative rho (up, down):  6.655E-04 0.000E+00

     total cpu time spent up to now is     1003.7 secs

     total energy              =    -734.73654406 Ry
     Harris-Foulkes estimate   =    -734.73654443 Ry
     estimated scf accuracy    <       0.00000151 Ry

     iteration # 19     ecut=    70.00 Ry     beta= 0.70
     Davidson diagonalization with overlap
     ethr =  7.23E-10,  avg # of iterations =  2.0

     negative rho (up, down):  6.655E-04 0.000E+00

     total cpu time spent up to now is     1053.2 secs

     total energy              =    -734.73654409 Ry
     Harris-Foulkes estimate   =    -734.73654422 Ry
     estimated scf accuracy    <       0.00000178 Ry

     iteration # 20     ecut=    70.00 Ry     beta= 0.70
     Davidson diagonalization with overlap
     ethr =  7.23E-10,  avg # of iterations =  2.0

     negative rho (up, down):  6.657E-04 0.000E+00

     total cpu time spent up to now is     1102.2 secs

     End of self-consistent calculation

          k = 0.0000 0.0000 0.0000 ( 87777 PWs)   bands (ev):

   -19.8268 -18.9825 -18.9782 -18.9013 -18.8992 -18.8393 -18.7238 -17.1454
   -17.1446 -17.1237 -17.0792 -17.0738 -16.7909 -16.3075 -16.3063 -16.1722
   -16.1701 -16.1563 -15.7292 -14.3734 -14.3715 -14.1155 -14.0312 -14.0287
   -13.5538 -13.1526 -13.1522 -13.0729 -12.9187 -12.9150 -12.5971 -12.2524
   -12.2503 -11.7033 -11.5907 -11.5898 -11.1290 -10.8651 -10.8645  -9.4990
    -9.3541  -9.3529  -9.2385  -9.2287  -9.2283  -9.2166  -9.0372  -9.0289
    -9.0238  -9.0037  -8.8948  -8.6954  -8.6931  -8.0306  -7.8822  -7.8375
    -7.6371  -7.6358  -7.5284  -7.5239  -7.3832  -6.8546  -6.8416  -6.8389
    -6.7936  -6.7808  -6.7108  -6.7048  -6.6086  -6.6048  -6.5698  -6.5660
    -6.5647  -6.5182  -6.3744  -6.3735  -6.2719  -5.5979  -5.5974  -5.0179
    -4.9515  -4.8745  -4.8730  -4.7609  -4.7563  -4.7246  -4.7110  -4.5351
    -4.5311  -4.3928  -3.8513  -3.8492  -3.8038  -3.8035  -3.7827  -3.6318
    -3.6246  -3.3166  -1.8817  -1.8268  -1.8245  -1.7256  -1.7191  -1.1765
    -0.6271  -0.6266   0.9118   0.9446   0.9502   1.1031   1.1078   1.5127
     2.5656   2.7874   2.7947   2.8398   2.9306   2.9426   3.3834   3.5141
     3.6842   3.8048   3.8080   3.8282   3.9832   4.2766

     occupation numbers 
     1.0000   1.0000   1.0000   1.0000   1.0000   1.0000   1.0000   1.0000
     1.0000   1.0000   1.0000   1.0000   1.0000   1.0000   1.0000   1.0000
     1.0000   1.0000   1.0000   1.0000   1.0000   1.0000   1.0000   1.0000
     1.0000   1.0000   1.0000   1.0000   1.0000   1.0000   1.0000   1.0000
     1.0000   1.0000   1.0000   1.0000   1.0000   1.0000   1.0000   1.0000
     1.0000   1.0000   1.0000   1.0000   1.0000   1.0000   1.0000   1.0000
     1.0000   1.0000   1.0000   1.0000   1.0000   1.0000   1.0000   1.0000
     1.0000   1.0000   1.0000   1.0000   1.0000   1.0000   1.0000   1.0000
     1.0000   1.0000   1.0000   1.0000   1.0000   1.0000   1.0000   1.0000
     1.0000   1.0000   1.0000   1.0000   1.0000   1.0000   1.0000   1.0000
     1.0000   1.0000   1.0000   1.0000   1.0000   1.0000   1.0000   1.0000
     1.0000   1.0000   1.0000   1.0000   1.0000   1.0000   1.0000   1.0000
     1.0000   1.0000   1.0000   1.0000   1.0000   1.0000   1.0000   1.0000
     0.2590   0.2410   0.0000   0.0000   0.0000   0.0000   0.0000   0.0000
     0.0000   0.0000   0.0000   0.0000   0.0000   0.0000   0.0000   0.0000
     0.0000   0.0000   0.0000   0.0000   0.0000   0.0000

     the Fermi energy is    -0.6302 ev

!    total energy              =    -734.73654367 Ry
     Harris-Foulkes estimate   =    -734.73654418 Ry
     estimated scf accuracy    <       0.00000060 Ry

     The total energy is the sum of the following terms:

     one-electron contribution =   -2505.28156002 Ry
     hartree contribution      =    1308.41276685 Ry
     xc contribution           =    -275.95880429 Ry
     ewald contribution        =     738.09166699 Ry
     smearing contrib. (-TS)   =      -0.00061320 Ry

     convergence has been achieved in  20 iterations

     Writing output data file distance-2.4.save/

     init_run     :     52.08s CPU     53.33s WALL (       1 calls)
     electrons    :   1016.00s CPU   1047.94s WALL (       1 calls)

     Called by init_run:
     wfcinit      :     20.99s CPU     21.15s WALL (       1 calls)
     wfcinit:atom :      0.03s CPU      0.05s WALL (       1 calls)
     wfcinit:wfcr :     20.80s CPU     20.91s WALL (       1 calls)
     potinit      :     13.72s CPU     14.13s WALL (       1 calls)
     hinit0       :     12.74s CPU     12.76s WALL (       1 calls)

     Called by electrons:
     c_bands      :    604.30s CPU    607.86s WALL (      20 calls)
     sum_band     :    203.89s CPU    214.76s WALL (      20 calls)
     v_of_rho     :    126.36s CPU    133.91s WALL (      21 calls)
     v_h          :      1.50s CPU      1.52s WALL (      21 calls)
     v_xc         :    124.86s CPU    132.39s WALL (      21 calls)
     newd         :     85.31s CPU     96.06s WALL (      21 calls)
     mix_rho      :      3.91s CPU      4.01s WALL (      20 calls)

     Called by c_bands:
     init_us_2    :      1.79s CPU      1.82s WALL (      41 calls)
     cegterg      :    599.99s CPU    603.53s WALL (      20 calls)

     Called by sum_band:
     sum_band:bec :      0.01s CPU      0.02s WALL (      20 calls)
     addusdens    :    126.24s CPU    136.59s WALL (      20 calls)

     Called by *egterg:
     h_psi        :    323.93s CPU    326.43s WALL (      92 calls)
     s_psi        :    109.90s CPU    109.94s WALL (      92 calls)
     g_psi        :      0.32s CPU      0.32s WALL (      71 calls)
     cdiaghg      :      5.87s CPU      5.88s WALL (      91 calls)
     cegterg:over :     70.65s CPU     70.69s WALL (      71 calls)
     cegterg:upda :     41.67s CPU     42.00s WALL (      71 calls)
     cegterg:last :     31.57s CPU     31.58s WALL (      20 calls)

     Called by h_psi:
     h_psi:pot    :    323.58s CPU    325.65s WALL (      92 calls)
     h_psi:calbec :    109.68s CPU    109.73s WALL (      92 calls)
     vloc_psi     :    104.28s CPU    106.24s WALL (      92 calls)
     add_vuspsi   :    109.62s CPU    109.67s WALL (      92 calls)

     General routines
     calbec       :    157.41s CPU    157.48s WALL (     112 calls)
     fft          :     73.06s CPU     75.70s WALL (    1321 calls)
     ffts         :      0.72s CPU      0.75s WALL (      41 calls)
     fftw         :    110.64s CPU    112.83s WALL (   14078 calls)
     interpolate  :      1.77s CPU      1.83s WALL (      21 calls)

     Parallel routines
     fft_scatt_xy :     31.03s CPU     31.43s WALL (   15440 calls)
     fft_scatt_yz :     64.63s CPU     68.16s WALL (   15440 calls)

     PWSCF        :  17m49.22s CPU  18m22.64s WALL


   This run was terminated on:  15:27: 3  26Jul2022            

=------------------------------------------------------------------------------=
   JOB DONE.
=------------------------------------------------------------------------------=
