
     Program PWSCF v.6.4.1 starts on 19Jul2022 at  8:56: 7 

     This program is part of the open-source Quantum ESPRESSO suite
     for quantum simulation of materials; please cite
         "P. Giannozzi et al., J. Phys.:Condens. Matter 21 395502 (2009);
         "P. Giannozzi et al., J. Phys.:Condens. Matter 29 465901 (2017);
          URL http://www.quantum-espresso.org", 
     in publications or presentations arising from this work. More details at
     http://www.quantum-espresso.org/quote

     Parallel version (MPI), running on     6 processors

     MPI processes distributed on     1 nodes
     R & G space division:  proc/nbgrp/npool/nimage =       6
     Reading input from distance-3.5.in

     Current dimensions of program PWSCF are:
     Max number of different atomic species (ntypx) = 10
     Max number of k-points (npk) =  40000
     Max angular momentum in pseudopotentials (lmaxx) =  3

     IMPORTANT: XC functional enforced from input :
     Exchange-correlation      = RVV10 ( 1  4 13  4 3 0)
     Any further DFT definition will be discarded
     Please, verify this is what you really want

               file H.pbe-rrkjus.UPF: wavefunction(s)  1S renormalized
               file Cu.pbe-dn-rrkjus_psl.1.0.0.UPF: wavefunction(s)  3D renormalized

     Subspace diagonalization in iterative solution of the eigenvalue problem:
     a serial algorithm will be used


     Parallelization info
     --------------------
     sticks:   dense  smooth     PW     G-vecs:    dense   smooth      PW
     Min        3051    1746    432               270999   117096   14629
     Max        3053    1747    437               271001   117099   14630
     Sum       18313   10477   2611              1626001   702581   87777



     bravais-lattice index     =            4
     lattice parameter (alat)  =      23.2937  a.u.
     unit-cell volume          =    8879.8548 (a.u.)^3
     number of atoms/cell      =           52
     number of atomic types    =            3
     number of electrons       =       209.00
     number of Kohn-Sham states=          126
     kinetic-energy cutoff     =      70.0000  Ry
     charge density cutoff     =     490.0000  Ry
     convergence threshold     =      1.0E-06
     mixing beta               =       0.7000
     number of iterations used =            8  plain     mixing
     Exchange-correlation      = RVV10 ( 1  4 13  4 3 0)

     celldm(1)=  23.293684  celldm(2)=   0.000000  celldm(3)=   0.811261
     celldm(4)=   0.000000  celldm(5)=   0.000000  celldm(6)=   0.000000

     crystal axes: (cart. coord. in units of alat)
               a(1) = (   1.000000   0.000000   0.000000 )  
               a(2) = (  -0.500000   0.866025   0.000000 )  
               a(3) = (   0.000000   0.000000   0.811261 )  

     reciprocal axes: (cart. coord. in units 2 pi/alat)
               b(1) = (  1.000000  0.577350 -0.000000 )  
               b(2) = (  0.000000  1.154701  0.000000 )  
               b(3) = (  0.000000 -0.000000  1.232649 )  


     PseudoPot. # 1 for H  read from file:
     /home/cristian/Escritorio/Proyecto_Grafeno/pseudopotenciales/H.pbe-rrkjus.UPF
     MD5 check sum: 7cc9d459525c9a0585f487a71c3c9563
     Pseudo is Ultrasoft, Zval =  1.0
     Generated by new atomic code, or converted to UPF format
     Using radial grid of 1061 points,  2 beta functions with: 
                l(1) =   0
                l(2) =   0
     Q(r) pseudized with 0 coefficients 


     PseudoPot. # 2 for C  read from file:
     /home/cristian/Escritorio/Proyecto_Grafeno/pseudopotenciales/C.pbe-n-rrkjus_psl.1.0.0.UPF
     MD5 check sum: 1fdd950c42eb37d8afe3dd2f8d12311e
     Pseudo is Ultrasoft + core correction, Zval =  4.0
     Generated using "atomic" code by A. Dal Corso v.6.3MaX
     Using radial grid of 1073 points,  4 beta functions with: 
                l(1) =   0
                l(2) =   0
                l(3) =   1
                l(4) =   1
     Q(r) pseudized with 0 coefficients 


     PseudoPot. # 3 for Cu read from file:
     /home/cristian/Escritorio/Proyecto_Grafeno/pseudopotenciales/Cu.pbe-dn-rrkjus_psl.1.0.0.UPF
     MD5 check sum: ba3d6c84e19846e79d48cdc68ff7152b
     Pseudo is Ultrasoft + core correction, Zval = 11.0
     Generated using "atomic" code by A. Dal Corso v.6.3
     Using radial grid of 1199 points,  6 beta functions with: 
                l(1) =   0
                l(2) =   0
                l(3) =   1
                l(4) =   1
                l(5) =   2
                l(6) =   2
     Q(r) pseudized with 0 coefficients 


     vdW kernel table read from file rVV10_kernel_table
     MD5 check sum: b8e2538accc0c0b3206b45ba4daaba6c

     atomic species   valence    mass     pseudopotential
        H              1.00     1.00794     H ( 1.00)
        C              4.00    12.01070     C ( 1.00)
        Cu            11.00    63.54600     Cu( 1.00)

      2 Sym. Ops. (no inversion) found


                                    s                        frac. trans.

      isym =  1     identity                                     

 cryst.   s( 1) = (     1          0          0      )
                  (     0          1          0      )
                  (     0          0          1      )

 cart.    s( 1) = (  1.0000000  0.0000000  0.0000000 )
                  (  0.0000000  1.0000000  0.0000000 )
                  (  0.0000000  0.0000000  1.0000000 )


      isym =  2     inv. 180 deg rotation - cryst. axis [1,1,0]  

 cryst.   s( 2) = (     0         -1          0      )
                  (    -1          0          0      )
                  (     0          0          1      )

 cart.    s( 2) = (  0.5000000 -0.8660254  0.0000000 )
                  ( -0.8660254 -0.5000000  0.0000000 )
                  (  0.0000000  0.0000000  1.0000000 )


     point group C_s (m)    
     there are  2 classes
     the character table:

       E     s    
A'     1.00  1.00
A''    1.00 -1.00

     the symmetry operations in each class and the name of the first element:

     E        1
          identity                                               
     s        2
          inv. 180 deg rotation - cryst. axis [1,1,0]            

   Cartesian axes

     site n.     atom                  positions (alat units)
         1           H   tau(   1) = (   0.2500000   0.4330127   0.2839414  )
         2           H   tau(   2) = (   0.2500000   0.4330127   0.3449541  )
         3           C   tau(   3) = (   0.0000000   0.0000000   0.0000000  )
         4           C   tau(   4) = (   0.0000000   0.1154701   0.0000000  )
         5           C   tau(   5) = (  -0.1000000   0.1732051   0.0000000  )
         6           C   tau(   6) = (  -0.1000000   0.2886751   0.0000000  )
         7           C   tau(   7) = (  -0.2000000   0.3464102   0.0000000  )
         8           C   tau(   8) = (  -0.2000000   0.4618802   0.0000000  )
         9           C   tau(   9) = (  -0.3000000   0.5196152   0.0000000  )
        10           C   tau(  10) = (  -0.3000000   0.6350853   0.0000000  )
        11           C   tau(  11) = (  -0.4000000   0.6928203   0.0000000  )
        12           C   tau(  12) = (  -0.4000000   0.8082904   0.0000000  )
        13           C   tau(  13) = (   0.2000000   0.0000000   0.0000000  )
        14           C   tau(  14) = (   0.2000000   0.1154701   0.0000000  )
        15           C   tau(  15) = (   0.1000000   0.1732051   0.0000000  )
        16           C   tau(  16) = (   0.1000000   0.2886751   0.0000000  )
        17           C   tau(  17) = (   0.0000000   0.3464102   0.0000000  )
        18           C   tau(  18) = (   0.0000000   0.4618802   0.0000000  )
        19           C   tau(  19) = (  -0.1000000   0.5196152   0.0000000  )
        20           C   tau(  20) = (  -0.1000000   0.6350853   0.0000000  )
        21           C   tau(  21) = (  -0.2000000   0.6928203   0.0000000  )
        22           C   tau(  22) = (  -0.2000000   0.8082904   0.0000000  )
        23           C   tau(  23) = (   0.4000000   0.0000000   0.0000000  )
        24           C   tau(  24) = (   0.4000000   0.1154701   0.0000000  )
        25           C   tau(  25) = (   0.3000000   0.1732051   0.0000000  )
        26           C   tau(  26) = (   0.3000000   0.2886751   0.0000000  )
        27           C   tau(  27) = (   0.2000000   0.3464102   0.0000000  )
        28           Cu  tau(  28) = (   0.2000000   0.4618802   0.0000000  )
        29           C   tau(  29) = (   0.1000000   0.5196152   0.0000000  )
        30           C   tau(  30) = (   0.1000000   0.6350853   0.0000000  )
        31           C   tau(  31) = (   0.0000000   0.6928203   0.0000000  )
        32           C   tau(  32) = (   0.0000000   0.8082904   0.0000000  )
        33           C   tau(  33) = (   0.6000000   0.0000000   0.0000000  )
        34           C   tau(  34) = (   0.6000000   0.1154701   0.0000000  )
        35           C   tau(  35) = (   0.5000000   0.1732051   0.0000000  )
        36           C   tau(  36) = (   0.5000000   0.2886751   0.0000000  )
        37           C   tau(  37) = (   0.4000000   0.3464102   0.0000000  )
        38           C   tau(  38) = (   0.4000000   0.4618802   0.0000000  )
        39           C   tau(  39) = (   0.3000000   0.5196152   0.0000000  )
        40           C   tau(  40) = (   0.3000000   0.6350853   0.0000000  )
        41           C   tau(  41) = (   0.2000000   0.6928203   0.0000000  )
        42           C   tau(  42) = (   0.2000000   0.8082904   0.0000000  )
        43           C   tau(  43) = (   0.8000000   0.0000000   0.0000000  )
        44           C   tau(  44) = (   0.8000000   0.1154701   0.0000000  )
        45           C   tau(  45) = (   0.7000000   0.1732051   0.0000000  )
        46           C   tau(  46) = (   0.7000000   0.2886751   0.0000000  )
        47           C   tau(  47) = (   0.6000000   0.3464102   0.0000000  )
        48           C   tau(  48) = (   0.6000000   0.4618802   0.0000000  )
        49           C   tau(  49) = (   0.5000000   0.5196152   0.0000000  )
        50           C   tau(  50) = (   0.5000000   0.6350853   0.0000000  )
        51           C   tau(  51) = (   0.4000000   0.6928203   0.0000000  )
        52           C   tau(  52) = (   0.4000000   0.8082904   0.0000000  )

   Crystallographic axes

     site n.     atom                  positions (cryst. coord.)
         1           H   tau(   1) = (  0.5000000  0.5000000  0.3500000  )
         2           H   tau(   2) = (  0.5000000  0.5000000  0.4252072  )
         3           C   tau(   3) = (  0.0000000  0.0000000  0.0000000  )
         4           C   tau(   4) = (  0.0666667  0.1333333  0.0000000  )
         5           C   tau(   5) = (  0.0000000  0.2000000  0.0000000  )
         6           C   tau(   6) = (  0.0666667  0.3333333  0.0000000  )
         7           C   tau(   7) = (  0.0000000  0.4000000  0.0000000  )
         8           C   tau(   8) = (  0.0666667  0.5333333  0.0000000  )
         9           C   tau(   9) = (  0.0000000  0.6000000  0.0000000  )
        10           C   tau(  10) = (  0.0666667  0.7333333  0.0000000  )
        11           C   tau(  11) = (  0.0000000  0.8000000  0.0000000  )
        12           C   tau(  12) = (  0.0666667  0.9333333  0.0000000  )
        13           C   tau(  13) = (  0.2000000  0.0000000  0.0000000  )
        14           C   tau(  14) = (  0.2666667  0.1333333  0.0000000  )
        15           C   tau(  15) = (  0.2000000  0.2000000  0.0000000  )
        16           C   tau(  16) = (  0.2666667  0.3333333  0.0000000  )
        17           C   tau(  17) = (  0.2000000  0.4000000  0.0000000  )
        18           C   tau(  18) = (  0.2666667  0.5333333  0.0000000  )
        19           C   tau(  19) = (  0.2000000  0.6000000  0.0000000  )
        20           C   tau(  20) = (  0.2666667  0.7333333  0.0000000  )
        21           C   tau(  21) = (  0.2000000  0.8000000  0.0000000  )
        22           C   tau(  22) = (  0.2666667  0.9333333  0.0000000  )
        23           C   tau(  23) = (  0.4000000  0.0000000  0.0000000  )
        24           C   tau(  24) = (  0.4666667  0.1333333  0.0000000  )
        25           C   tau(  25) = (  0.4000000  0.2000000  0.0000000  )
        26           C   tau(  26) = (  0.4666667  0.3333333  0.0000000  )
        27           C   tau(  27) = (  0.4000000  0.4000000  0.0000000  )
        28           Cu  tau(  28) = (  0.4666667  0.5333333  0.0000000  )
        29           C   tau(  29) = (  0.4000000  0.6000000  0.0000000  )
        30           C   tau(  30) = (  0.4666667  0.7333333  0.0000000  )
        31           C   tau(  31) = (  0.4000000  0.8000000  0.0000000  )
        32           C   tau(  32) = (  0.4666667  0.9333333  0.0000000  )
        33           C   tau(  33) = (  0.6000000  0.0000000  0.0000000  )
        34           C   tau(  34) = (  0.6666667  0.1333333  0.0000000  )
        35           C   tau(  35) = (  0.6000000  0.2000000  0.0000000  )
        36           C   tau(  36) = (  0.6666667  0.3333333  0.0000000  )
        37           C   tau(  37) = (  0.6000000  0.4000000  0.0000000  )
        38           C   tau(  38) = (  0.6666667  0.5333333  0.0000000  )
        39           C   tau(  39) = (  0.6000000  0.6000000  0.0000000  )
        40           C   tau(  40) = (  0.6666667  0.7333333  0.0000000  )
        41           C   tau(  41) = (  0.6000000  0.8000000  0.0000000  )
        42           C   tau(  42) = (  0.6666667  0.9333333  0.0000000  )
        43           C   tau(  43) = (  0.8000000  0.0000000  0.0000000  )
        44           C   tau(  44) = (  0.8666667  0.1333333  0.0000000  )
        45           C   tau(  45) = (  0.8000000  0.2000000  0.0000000  )
        46           C   tau(  46) = (  0.8666667  0.3333333  0.0000000  )
        47           C   tau(  47) = (  0.8000000  0.4000000  0.0000000  )
        48           C   tau(  48) = (  0.8666667  0.5333333  0.0000000  )
        49           C   tau(  49) = (  0.8000000  0.6000000  0.0000000  )
        50           C   tau(  50) = (  0.8666667  0.7333333  0.0000000  )
        51           C   tau(  51) = (  0.8000000  0.8000000  0.0000000  )
        52           C   tau(  52) = (  0.8666667  0.9333333  0.0000000  )

     number of k points=     1  Marzari-Vanderbilt smearing, width (Ry)=  0.0010
                       cart. coord. in units 2pi/alat
        k(    1) = (   0.0000000   0.0000000   0.0000000), wk =   2.0000000

                       cryst. coord.
        k(    1) = (   0.0000000   0.0000000   0.0000000), wk =   2.0000000

     Dense  grid:  1626001 G-vectors     FFT dimensions: ( 180, 180, 135)

     Smooth grid:   702581 G-vectors     FFT dimensions: ( 125, 125, 108)

     Dynamical RAM for                 wfc:      28.14 MB

     Dynamical RAM for     wfc (w. buffer):      28.14 MB

     Dynamical RAM for           str. fact:      12.41 MB

     Dynamical RAM for           local pot:       0.00 MB

     Dynamical RAM for          nlocal pot:      92.46 MB

     Dynamical RAM for                qrad:      19.73 MB

     Dynamical RAM for          rho,v,vnew:      29.46 MB

     Dynamical RAM for               rhoin:       9.82 MB

     Dynamical RAM for            rho*nmix:      66.16 MB

     Dynamical RAM for           G-vectors:      16.40 MB

     Dynamical RAM for          h,s,v(r/c):      11.63 MB

     Dynamical RAM for          <psi|beta>:       0.80 MB

     Dynamical RAM for                 psi:     112.56 MB

     Dynamical RAM for                hpsi:     112.56 MB

     Dynamical RAM for                spsi:     112.56 MB

     Dynamical RAM for      wfcinit/wfcrot:      93.45 MB

     Dynamical RAM for           addusdens:     971.75 MB

     Estimated static dynamical RAM per process >     319.55 MB

     Estimated max dynamical RAM per process >       1.26 GB

     Estimated total dynamical RAM >       7.57 GB

     Check: negative core charge=   -0.000002

     Initial potential from superposition of free atoms

     starting charge  208.80532, renormalised to  209.00000

     negative rho (up, down):  6.110E-05 0.000E+00


---------------------------------------------------------------------------------
Carrying out rVV10 run using the following parameters:
Nqs =      20    Nr_points =    1024   r_max =   100.000
b_value =  6.30000    beta =  0.00901
     q_mesh =  0.00010000  0.00030000  0.00058939  0.00100810
               0.00161396  0.00249058  0.00375900  0.00559430
               0.00824984  0.01209221  0.01765183  0.02569619
               0.03733578  0.05417739  0.07854596  0.11380545
               0.16482331  0.23864234  0.34545298  0.50000000

Gradients computed in Reciprocal space

---------------------------------------------------------------------------------


     Starting wfcs are  207 randomized atomic wfcs

     total cpu time spent up to now is       50.0 secs

     Self-consistent Calculation

     iteration #  1     ecut=    70.00 Ry     beta= 0.70
     Davidson diagonalization with overlap
     ethr =  1.00E-02,  avg # of iterations =  2.0

     negative rho (up, down):  1.316E-04 0.000E+00

     total cpu time spent up to now is      116.8 secs

     total energy              =    -732.19792169 Ry
     Harris-Foulkes estimate   =    -737.62490847 Ry
     estimated scf accuracy    <       8.03634250 Ry

     iteration #  2     ecut=    70.00 Ry     beta= 0.70
     Davidson diagonalization with overlap
     ethr =  3.85E-03,  avg # of iterations =  5.0

     negative rho (up, down):  1.557E-04 0.000E+00

     total cpu time spent up to now is      182.3 secs

     total energy              =    -731.21586396 Ry
     Harris-Foulkes estimate   =    -738.14439574 Ry
     estimated scf accuracy    <      15.08514115 Ry

     iteration #  3     ecut=    70.00 Ry     beta= 0.70
     Davidson diagonalization with overlap
     ethr =  3.85E-03,  avg # of iterations =  5.0

     negative rho (up, down):  1.983E-04 0.000E+00

     total cpu time spent up to now is      238.7 secs

     total energy              =    -732.89177339 Ry
     Harris-Foulkes estimate   =    -736.23620388 Ry
     estimated scf accuracy    <      11.20637086 Ry

     iteration #  4     ecut=    70.00 Ry     beta= 0.70
     Davidson diagonalization with overlap
     ethr =  3.85E-03,  avg # of iterations =  3.0

     negative rho (up, down):  2.267E-04 0.000E+00

     total cpu time spent up to now is      293.3 secs

     total energy              =    -734.15590461 Ry
     Harris-Foulkes estimate   =    -734.98332602 Ry
     estimated scf accuracy    <       3.85763286 Ry

     iteration #  5     ecut=    70.00 Ry     beta= 0.70
     Davidson diagonalization with overlap
     ethr =  1.85E-03,  avg # of iterations =  2.0

     negative rho (up, down):  2.451E-04 0.000E+00

     total cpu time spent up to now is      342.9 secs

     total energy              =    -734.71726903 Ry
     Harris-Foulkes estimate   =    -734.81252531 Ry
     estimated scf accuracy    <       0.30709781 Ry

     iteration #  6     ecut=    70.00 Ry     beta= 0.70
     Davidson diagonalization with overlap
     ethr =  1.47E-04,  avg # of iterations =  7.0

     negative rho (up, down):  2.649E-04 0.000E+00

     total cpu time spent up to now is      402.0 secs

     total energy              =    -734.74685926 Ry
     Harris-Foulkes estimate   =    -734.78304753 Ry
     estimated scf accuracy    <       0.16345208 Ry

     iteration #  7     ecut=    70.00 Ry     beta= 0.70
     Davidson diagonalization with overlap
     ethr =  7.82E-05,  avg # of iterations =  2.0

     negative rho (up, down):  2.999E-04 0.000E+00

     total cpu time spent up to now is      451.9 secs

     total energy              =    -734.75060687 Ry
     Harris-Foulkes estimate   =    -734.76813807 Ry
     estimated scf accuracy    <       0.09504624 Ry

     iteration #  8     ecut=    70.00 Ry     beta= 0.70
     Davidson diagonalization with overlap
     ethr =  4.55E-05,  avg # of iterations =  2.0

     negative rho (up, down):  3.581E-04 0.000E+00

     total cpu time spent up to now is      501.6 secs

     total energy              =    -734.75103713 Ry
     Harris-Foulkes estimate   =    -734.75970668 Ry
     estimated scf accuracy    <       0.05294570 Ry

     iteration #  9     ecut=    70.00 Ry     beta= 0.70
     Davidson diagonalization with overlap
     ethr =  2.53E-05,  avg # of iterations = 14.0

     negative rho (up, down):  4.582E-04 0.000E+00

     total cpu time spent up to now is      555.7 secs

     total energy              =    -734.75092847 Ry
     Harris-Foulkes estimate   =    -734.75481389 Ry
     estimated scf accuracy    <       0.02789239 Ry

     iteration # 10     ecut=    70.00 Ry     beta= 0.70
     Davidson diagonalization with overlap
     ethr =  1.33E-05,  avg # of iterations =  3.0

     negative rho (up, down):  5.608E-04 0.000E+00

     total cpu time spent up to now is      605.9 secs

     total energy              =    -734.75137979 Ry
     Harris-Foulkes estimate   =    -734.75290456 Ry
     estimated scf accuracy    <       0.00927657 Ry

     iteration # 11     ecut=    70.00 Ry     beta= 0.70
     Davidson diagonalization with overlap
     ethr =  4.44E-06,  avg # of iterations =  3.0

     negative rho (up, down):  5.944E-04 0.000E+00

     total cpu time spent up to now is      656.9 secs

     total energy              =    -734.75186554 Ry
     Harris-Foulkes estimate   =    -734.75239893 Ry
     estimated scf accuracy    <       0.00811754 Ry

     iteration # 12     ecut=    70.00 Ry     beta= 0.70
     Davidson diagonalization with overlap
     ethr =  3.88E-06,  avg # of iterations =  1.0

     negative rho (up, down):  5.962E-04 0.000E+00

     total cpu time spent up to now is      706.6 secs

     total energy              =    -734.75207362 Ry
     Harris-Foulkes estimate   =    -734.75234195 Ry
     estimated scf accuracy    <       0.00609740 Ry

     iteration # 13     ecut=    70.00 Ry     beta= 0.70
     Davidson diagonalization with overlap
     ethr =  2.92E-06,  avg # of iterations =  1.0

     negative rho (up, down):  5.967E-04 0.000E+00

     total cpu time spent up to now is      756.0 secs

     total energy              =    -734.75223087 Ry
     Harris-Foulkes estimate   =    -734.75225396 Ry
     estimated scf accuracy    <       0.00075650 Ry

     iteration # 14     ecut=    70.00 Ry     beta= 0.70
     Davidson diagonalization with overlap
     ethr =  3.62E-07,  avg # of iterations =  1.0

     negative rho (up, down):  5.929E-04 0.000E+00

     total cpu time spent up to now is      805.5 secs

     total energy              =    -734.75223644 Ry
     Harris-Foulkes estimate   =    -734.75224322 Ry
     estimated scf accuracy    <       0.00010236 Ry

     iteration # 15     ecut=    70.00 Ry     beta= 0.70
     Davidson diagonalization with overlap
     ethr =  4.90E-08,  avg # of iterations =  2.0

     negative rho (up, down):  5.921E-04 0.000E+00

     total cpu time spent up to now is      855.0 secs

     total energy              =    -734.75223986 Ry
     Harris-Foulkes estimate   =    -734.75224368 Ry
     estimated scf accuracy    <       0.00008345 Ry

     iteration # 16     ecut=    70.00 Ry     beta= 0.70
     Davidson diagonalization with overlap
     ethr =  3.99E-08,  avg # of iterations =  1.0

     negative rho (up, down):  5.924E-04 0.000E+00

     total cpu time spent up to now is      904.3 secs

     total energy              =    -734.75224213 Ry
     Harris-Foulkes estimate   =    -734.75224277 Ry
     estimated scf accuracy    <       0.00001602 Ry

     iteration # 17     ecut=    70.00 Ry     beta= 0.70
     Davidson diagonalization with overlap
     ethr =  7.67E-09,  avg # of iterations =  1.0

     negative rho (up, down):  5.921E-04 0.000E+00

     total cpu time spent up to now is      953.5 secs

     End of self-consistent calculation

          k = 0.0000 0.0000 0.0000 ( 87777 PWs)   bands (ev):

   -19.8365 -18.9910 -18.9907 -18.9092 -18.9087 -18.8485 -18.7359 -17.1567
   -17.1564 -17.1329 -17.0864 -17.0861 -16.8010 -16.3183 -16.3183 -16.1809
   -16.1809 -16.1658 -15.7399 -14.3879 -14.3877 -14.1261 -14.0391 -14.0389
   -13.5643 -13.1626 -13.1626 -13.0824 -12.9275 -12.9274 -12.6081 -12.2689
   -12.2688 -11.7131 -11.6003 -11.6002 -11.1435 -10.8845 -10.8844  -9.5124
    -9.3635  -9.3633  -9.2481  -9.2378  -9.2378  -9.2262  -9.0413  -9.0413
    -9.0323  -9.0323  -8.9098  -8.7058  -8.7058  -7.9605  -7.8931  -7.8371
    -7.6485  -7.6484  -7.5343  -7.5343  -6.9267  -6.8493  -6.8491  -6.8063
    -6.7991  -6.7285  -6.7168  -6.7147  -6.6167  -6.6164  -6.5792  -6.5745
    -6.5744  -6.5327  -6.5274  -6.3869  -6.3867  -5.6082  -5.6082  -5.0282
    -4.9607  -4.9173  -4.8847  -4.8846  -4.7681  -4.7330  -4.7327  -4.5443
    -4.5443  -4.4691  -3.8578  -3.8576  -3.8139  -3.8138  -3.7911  -3.6388
    -3.6383  -3.3961  -1.8892  -1.8339  -1.8337  -1.7305  -1.7297  -1.2131
    -0.6488  -0.6487   0.9048   0.9412   0.9417   1.0982   1.0984   1.4938
     2.5518   2.7864   2.7871   2.8304   2.9364   2.9372   3.3774   3.6552
     3.6609   3.8040   3.8256   3.8679   3.9950   4.5259

     occupation numbers 
     1.0000   1.0000   1.0000   1.0000   1.0000   1.0000   1.0000   1.0000
     1.0000   1.0000   1.0000   1.0000   1.0000   1.0000   1.0000   1.0000
     1.0000   1.0000   1.0000   1.0000   1.0000   1.0000   1.0000   1.0000
     1.0000   1.0000   1.0000   1.0000   1.0000   1.0000   1.0000   1.0000
     1.0000   1.0000   1.0000   1.0000   1.0000   1.0000   1.0000   1.0000
     1.0000   1.0000   1.0000   1.0000   1.0000   1.0000   1.0000   1.0000
     1.0000   1.0000   1.0000   1.0000   1.0000   1.0000   1.0000   1.0000
     1.0000   1.0000   1.0000   1.0000   1.0000   1.0000   1.0000   1.0000
     1.0000   1.0000   1.0000   1.0000   1.0000   1.0000   1.0000   1.0000
     1.0000   1.0000   1.0000   1.0000   1.0000   1.0000   1.0000   1.0000
     1.0000   1.0000   1.0000   1.0000   1.0000   1.0000   1.0000   1.0000
     1.0000   1.0000   1.0000   1.0000   1.0000   1.0000   1.0000   1.0000
     1.0000   1.0000   1.0000   1.0000   1.0000   1.0000   1.0000   1.0000
     0.2510   0.2490   0.0000   0.0000   0.0000   0.0000   0.0000   0.0000
     0.0000   0.0000   0.0000   0.0000   0.0000   0.0000   0.0000   0.0000
     0.0000   0.0000   0.0000   0.0000   0.0000   0.0000

     the Fermi energy is    -0.6521 ev

!    total energy              =    -734.75224218 Ry
     Harris-Foulkes estimate   =    -734.75224256 Ry
     estimated scf accuracy    <       0.00000049 Ry

     The total energy is the sum of the following terms:

     one-electron contribution =   -2480.20357981 Ry
     hartree contribution      =    1295.76564577 Ry
     xc contribution           =    -275.90751665 Ry
     ewald contribution        =     725.59382200 Ry
     smearing contrib. (-TS)   =      -0.00061349 Ry

     convergence has been achieved in  17 iterations

     Writing output data file gr-12-bridge2.save/

     init_run     :     47.64s CPU     48.88s WALL (       1 calls)
     electrons    :    874.76s CPU    903.64s WALL (       1 calls)

     Called by init_run:
     wfcinit      :     21.26s CPU     21.41s WALL (       1 calls)
     wfcinit:atom :      0.04s CPU      0.05s WALL (       1 calls)
     wfcinit:wfcr :     21.05s CPU     21.14s WALL (       1 calls)
     potinit      :     11.94s CPU     12.36s WALL (       1 calls)
     hinit0       :      9.67s CPU      9.72s WALL (       1 calls)

     Called by electrons:
     c_bands      :    515.38s CPU    518.79s WALL (      17 calls)
     sum_band     :    177.47s CPU    187.38s WALL (      17 calls)
     v_of_rho     :    111.98s CPU    118.69s WALL (      18 calls)
     v_h          :      1.22s CPU      1.27s WALL (      18 calls)
     v_xc         :    110.75s CPU    117.42s WALL (      18 calls)
     newd         :     74.91s CPU     84.54s WALL (      18 calls)
     mix_rho      :      3.29s CPU      3.36s WALL (      17 calls)

     Called by c_bands:
     init_us_2    :      1.50s CPU      1.55s WALL (      35 calls)
     cegterg      :    511.31s CPU    514.70s WALL (      17 calls)

     Called by sum_band:
     sum_band:bec :      0.01s CPU      0.01s WALL (      17 calls)
     addusdens    :    110.50s CPU    119.77s WALL (      17 calls)

     Called by *egterg:
     h_psi        :    279.34s CPU    281.73s WALL (      73 calls)
     s_psi        :     93.12s CPU     93.21s WALL (      73 calls)
     g_psi        :      0.28s CPU      0.29s WALL (      55 calls)
     cdiaghg      :      4.51s CPU      4.51s WALL (      72 calls)
     cegterg:over :     60.59s CPU     60.65s WALL (      55 calls)
     cegterg:upda :     35.15s CPU     35.39s WALL (      55 calls)
     cegterg:last :     26.57s CPU     26.59s WALL (      17 calls)

     Called by h_psi:
     h_psi:pot    :    279.03s CPU    281.06s WALL (      73 calls)
     h_psi:calbec :     93.09s CPU     93.17s WALL (      73 calls)
     vloc_psi     :     93.10s CPU     94.96s WALL (      73 calls)
     add_vuspsi   :     92.84s CPU     92.92s WALL (      73 calls)

     General routines
     calbec       :    133.45s CPU    133.59s WALL (      90 calls)
     fft          :     62.11s CPU     64.66s WALL (    1132 calls)
     ffts         :      0.64s CPU      0.66s WALL (      35 calls)
     fftw         :     99.70s CPU    101.74s WALL (   12024 calls)
     interpolate  :      1.49s CPU      1.56s WALL (      18 calls)

     Parallel routines
     fft_scatt_xy :     28.02s CPU     28.41s WALL (   13191 calls)
     fft_scatt_yz :     56.42s CPU     59.67s WALL (   13191 calls)

     PWSCF        :  15m23.60s CPU  15m53.98s WALL


   This run was terminated on:   9:12: 1  19Jul2022            

=------------------------------------------------------------------------------=
   JOB DONE.
=------------------------------------------------------------------------------=
