
     Program PWSCF v.6.4.1 starts on 15Jul2022 at 13:12:48 

     This program is part of the open-source Quantum ESPRESSO suite
     for quantum simulation of materials; please cite
         "P. Giannozzi et al., J. Phys.:Condens. Matter 21 395502 (2009);
         "P. Giannozzi et al., J. Phys.:Condens. Matter 29 465901 (2017);
          URL http://www.quantum-espresso.org", 
     in publications or presentations arising from this work. More details at
     http://www.quantum-espresso.org/quote

     Parallel version (MPI), running on     6 processors

     MPI processes distributed on     1 nodes
     R & G space division:  proc/nbgrp/npool/nimage =       6
     Reading input from rotate-0.in

     Current dimensions of program PWSCF are:
     Max number of different atomic species (ntypx) = 10
     Max number of k-points (npk) =  40000
     Max angular momentum in pseudopotentials (lmaxx) =  3

     IMPORTANT: XC functional enforced from input :
     Exchange-correlation      = RVV10 ( 1  4 13  4 3 0)
     Any further DFT definition will be discarded
     Please, verify this is what you really want

               file H.pbe-rrkjus.UPF: wavefunction(s)  1S renormalized

     Subspace diagonalization in iterative solution of the eigenvalue problem:
     a serial algorithm will be used


     Parallelization info
     --------------------
     sticks:   dense  smooth     PW     G-vecs:    dense   smooth      PW
     Min        3052    1746    434               406522   175650   21946
     Max        3053    1747    436               406527   175655   21948
     Sum       18313   10477   2611              2439139  1053907  131685



     bravais-lattice index     =            4
     lattice parameter (alat)  =      23.2937  a.u.
     unit-cell volume          =   13319.7822 (a.u.)^3
     number of atoms/cell      =           52
     number of atomic types    =            2
     number of electrons       =       202.00
     number of Kohn-Sham states=          121
     kinetic-energy cutoff     =      70.0000  Ry
     charge density cutoff     =     490.0000  Ry
     convergence threshold     =      1.0E-06
     mixing beta               =       0.7000
     number of iterations used =            8  plain     mixing
     Exchange-correlation      = RVV10 ( 1  4 13  4 3 0)

     celldm(1)=  23.293684  celldm(2)=   0.000000  celldm(3)=   1.216892
     celldm(4)=   0.000000  celldm(5)=   0.000000  celldm(6)=   0.000000

     crystal axes: (cart. coord. in units of alat)
               a(1) = (   1.000000   0.000000   0.000000 )  
               a(2) = (  -0.500000   0.866025   0.000000 )  
               a(3) = (   0.000000   0.000000   1.216892 )  

     reciprocal axes: (cart. coord. in units 2 pi/alat)
               b(1) = (  1.000000  0.577350 -0.000000 )  
               b(2) = (  0.000000  1.154701  0.000000 )  
               b(3) = (  0.000000 -0.000000  0.821766 )  


     PseudoPot. # 1 for H  read from file:
     /home/cristian/Escritorio/Proyecto_Grafeno/pseudopotenciales/H.pbe-rrkjus.UPF
     MD5 check sum: 7cc9d459525c9a0585f487a71c3c9563
     Pseudo is Ultrasoft, Zval =  1.0
     Generated by new atomic code, or converted to UPF format
     Using radial grid of 1061 points,  2 beta functions with: 
                l(1) =   0
                l(2) =   0
     Q(r) pseudized with 0 coefficients 


     PseudoPot. # 2 for C  read from file:
     /home/cristian/Escritorio/Proyecto_Grafeno/pseudopotenciales/C.pbe-n-rrkjus_psl.1.0.0.UPF
     MD5 check sum: 1fdd950c42eb37d8afe3dd2f8d12311e
     Pseudo is Ultrasoft + core correction, Zval =  4.0
     Generated using "atomic" code by A. Dal Corso v.6.3MaX
     Using radial grid of 1073 points,  4 beta functions with: 
                l(1) =   0
                l(2) =   0
                l(3) =   1
                l(4) =   1
     Q(r) pseudized with 0 coefficients 


     vdW kernel table read from file rVV10_kernel_table
     MD5 check sum: b8e2538accc0c0b3206b45ba4daaba6c

     atomic species   valence    mass     pseudopotential
        H              1.00     1.00794     H ( 1.00)
        C              4.00    12.01070     C ( 1.00)

     No symmetry found


                                    s                        frac. trans.

      isym =  1     identity                                     

 cryst.   s( 1) = (     1          0          0      )
                  (     0          1          0      )
                  (     0          0          1      )

 cart.    s( 1) = (  1.0000000  0.0000000  0.0000000 )
                  (  0.0000000  1.0000000  0.0000000 )
                  (  0.0000000  0.0000000  1.0000000 )


     point group C_1 (1)    
     there are  1 classes
     the character table:

       E    
A      1.00

     the symmetry operations in each class and the name of the first element:

     E        1
          identity                                               

   Cartesian axes

     site n.     atom                  positions (alat units)
         1           H   tau(   1) = (   0.2305063   0.4618802   0.2541973  )
         2           H   tau(   2) = (   0.1694937   0.4618802   0.2541973  )
         3           C   tau(   3) = (   0.0000000   0.0000000   0.0000000  )
         4           C   tau(   4) = (   0.0000000   0.1154701   0.0000000  )
         5           C   tau(   5) = (  -0.1000000   0.1732051   0.0000000  )
         6           C   tau(   6) = (  -0.1000000   0.2886751   0.0000000  )
         7           C   tau(   7) = (  -0.2000000   0.3464102   0.0000000  )
         8           C   tau(   8) = (  -0.2000000   0.4618802   0.0000000  )
         9           C   tau(   9) = (  -0.3000000   0.5196152   0.0000000  )
        10           C   tau(  10) = (  -0.3000000   0.6350853   0.0000000  )
        11           C   tau(  11) = (  -0.4000000   0.6928203   0.0000000  )
        12           C   tau(  12) = (  -0.4000000   0.8082904   0.0000000  )
        13           C   tau(  13) = (   0.2000000   0.0000000   0.0000000  )
        14           C   tau(  14) = (   0.2000000   0.1154701   0.0000000  )
        15           C   tau(  15) = (   0.1000000   0.1732051   0.0000000  )
        16           C   tau(  16) = (   0.1000000   0.2886751   0.0000000  )
        17           C   tau(  17) = (   0.0000000   0.3464102   0.0000000  )
        18           C   tau(  18) = (   0.0000000   0.4618802   0.0000000  )
        19           C   tau(  19) = (  -0.1000000   0.5196152   0.0000000  )
        20           C   tau(  20) = (  -0.1000000   0.6350853   0.0000000  )
        21           C   tau(  21) = (  -0.2000000   0.6928203   0.0000000  )
        22           C   tau(  22) = (  -0.2000000   0.8082904   0.0000000  )
        23           C   tau(  23) = (   0.4000000   0.0000000   0.0000000  )
        24           C   tau(  24) = (   0.4000000   0.1154701   0.0000000  )
        25           C   tau(  25) = (   0.3000000   0.1732051   0.0000000  )
        26           C   tau(  26) = (   0.3000000   0.2886751   0.0000000  )
        27           C   tau(  27) = (   0.2000000   0.3464102   0.0000000  )
        28           C   tau(  28) = (   0.2000000   0.4618802   0.0000000  )
        29           C   tau(  29) = (   0.1000000   0.5196152   0.0000000  )
        30           C   tau(  30) = (   0.1000000   0.6350853   0.0000000  )
        31           C   tau(  31) = (   0.0000000   0.6928203   0.0000000  )
        32           C   tau(  32) = (   0.0000000   0.8082904   0.0000000  )
        33           C   tau(  33) = (   0.6000000   0.0000000   0.0000000  )
        34           C   tau(  34) = (   0.6000000   0.1154701   0.0000000  )
        35           C   tau(  35) = (   0.5000000   0.1732051   0.0000000  )
        36           C   tau(  36) = (   0.5000000   0.2886751   0.0000000  )
        37           C   tau(  37) = (   0.4000000   0.3464102   0.0000000  )
        38           C   tau(  38) = (   0.4000000   0.4618802   0.0000000  )
        39           C   tau(  39) = (   0.3000000   0.5196152   0.0000000  )
        40           C   tau(  40) = (   0.3000000   0.6350853   0.0000000  )
        41           C   tau(  41) = (   0.2000000   0.6928203   0.0000000  )
        42           C   tau(  42) = (   0.2000000   0.8082904   0.0000000  )
        43           C   tau(  43) = (   0.8000000   0.0000000   0.0000000  )
        44           C   tau(  44) = (   0.8000000   0.1154701   0.0000000  )
        45           C   tau(  45) = (   0.7000000   0.1732051   0.0000000  )
        46           C   tau(  46) = (   0.7000000   0.2886751   0.0000000  )
        47           C   tau(  47) = (   0.6000000   0.3464102   0.0000000  )
        48           C   tau(  48) = (   0.6000000   0.4618802   0.0000000  )
        49           C   tau(  49) = (   0.5000000   0.5196152   0.0000000  )
        50           C   tau(  50) = (   0.5000000   0.6350853   0.0000000  )
        51           C   tau(  51) = (   0.4000000   0.6928203   0.0000000  )
        52           C   tau(  52) = (   0.4000000   0.8082904   0.0000000  )

   Crystallographic axes

     site n.     atom                  positions (cryst. coord.)
         1           H   tau(   1) = (  0.4971730  0.5333333  0.2088907  )
         2           H   tau(   2) = (  0.4361603  0.5333333  0.2088907  )
         3           C   tau(   3) = (  0.0000000  0.0000000  0.0000000  )
         4           C   tau(   4) = (  0.0666667  0.1333333  0.0000000  )
         5           C   tau(   5) = (  0.0000000  0.2000000  0.0000000  )
         6           C   tau(   6) = (  0.0666667  0.3333333  0.0000000  )
         7           C   tau(   7) = (  0.0000000  0.4000000  0.0000000  )
         8           C   tau(   8) = (  0.0666667  0.5333333  0.0000000  )
         9           C   tau(   9) = (  0.0000000  0.6000000  0.0000000  )
        10           C   tau(  10) = (  0.0666667  0.7333333  0.0000000  )
        11           C   tau(  11) = (  0.0000000  0.8000000  0.0000000  )
        12           C   tau(  12) = (  0.0666667  0.9333333  0.0000000  )
        13           C   tau(  13) = (  0.2000000  0.0000000  0.0000000  )
        14           C   tau(  14) = (  0.2666667  0.1333333  0.0000000  )
        15           C   tau(  15) = (  0.2000000  0.2000000  0.0000000  )
        16           C   tau(  16) = (  0.2666667  0.3333333  0.0000000  )
        17           C   tau(  17) = (  0.2000000  0.4000000  0.0000000  )
        18           C   tau(  18) = (  0.2666667  0.5333333  0.0000000  )
        19           C   tau(  19) = (  0.2000000  0.6000000  0.0000000  )
        20           C   tau(  20) = (  0.2666667  0.7333333  0.0000000  )
        21           C   tau(  21) = (  0.2000000  0.8000000  0.0000000  )
        22           C   tau(  22) = (  0.2666667  0.9333333  0.0000000  )
        23           C   tau(  23) = (  0.4000000  0.0000000  0.0000000  )
        24           C   tau(  24) = (  0.4666667  0.1333333  0.0000000  )
        25           C   tau(  25) = (  0.4000000  0.2000000  0.0000000  )
        26           C   tau(  26) = (  0.4666667  0.3333333  0.0000000  )
        27           C   tau(  27) = (  0.4000000  0.4000000  0.0000000  )
        28           C   tau(  28) = (  0.4666667  0.5333333  0.0000000  )
        29           C   tau(  29) = (  0.4000000  0.6000000  0.0000000  )
        30           C   tau(  30) = (  0.4666667  0.7333333  0.0000000  )
        31           C   tau(  31) = (  0.4000000  0.8000000  0.0000000  )
        32           C   tau(  32) = (  0.4666667  0.9333333  0.0000000  )
        33           C   tau(  33) = (  0.6000000  0.0000000  0.0000000  )
        34           C   tau(  34) = (  0.6666667  0.1333333  0.0000000  )
        35           C   tau(  35) = (  0.6000000  0.2000000  0.0000000  )
        36           C   tau(  36) = (  0.6666667  0.3333333  0.0000000  )
        37           C   tau(  37) = (  0.6000000  0.4000000  0.0000000  )
        38           C   tau(  38) = (  0.6666667  0.5333333  0.0000000  )
        39           C   tau(  39) = (  0.6000000  0.6000000  0.0000000  )
        40           C   tau(  40) = (  0.6666667  0.7333333  0.0000000  )
        41           C   tau(  41) = (  0.6000000  0.8000000  0.0000000  )
        42           C   tau(  42) = (  0.6666667  0.9333333  0.0000000  )
        43           C   tau(  43) = (  0.8000000  0.0000000  0.0000000  )
        44           C   tau(  44) = (  0.8666667  0.1333333  0.0000000  )
        45           C   tau(  45) = (  0.8000000  0.2000000  0.0000000  )
        46           C   tau(  46) = (  0.8666667  0.3333333  0.0000000  )
        47           C   tau(  47) = (  0.8000000  0.4000000  0.0000000  )
        48           C   tau(  48) = (  0.8666667  0.5333333  0.0000000  )
        49           C   tau(  49) = (  0.8000000  0.6000000  0.0000000  )
        50           C   tau(  50) = (  0.8666667  0.7333333  0.0000000  )
        51           C   tau(  51) = (  0.8000000  0.8000000  0.0000000  )
        52           C   tau(  52) = (  0.8666667  0.9333333  0.0000000  )

     number of k points=     1  Marzari-Vanderbilt smearing, width (Ry)=  0.0010
                       cart. coord. in units 2pi/alat
        k(    1) = (   0.0000000   0.0000000   0.0000000), wk =   2.0000000

                       cryst. coord.
        k(    1) = (   0.0000000   0.0000000   0.0000000), wk =   2.0000000

     Dense  grid:  2439139 G-vectors     FFT dimensions: ( 180, 180, 200)

     Smooth grid:  1053907 G-vectors     FFT dimensions: ( 125, 125, 160)

     Dynamical RAM for                 wfc:      40.54 MB

     Dynamical RAM for     wfc (w. buffer):      40.54 MB

     Dynamical RAM for           str. fact:      12.41 MB

     Dynamical RAM for           local pot:       0.00 MB

     Dynamical RAM for          nlocal pot:     135.34 MB

     Dynamical RAM for                qrad:       3.76 MB

     Dynamical RAM for          rho,v,vnew:      43.82 MB

     Dynamical RAM for               rhoin:      14.61 MB

     Dynamical RAM for            rho*nmix:      99.25 MB

     Dynamical RAM for           G-vectors:      24.60 MB

     Dynamical RAM for          h,s,v(r/c):      10.72 MB

     Dynamical RAM for          <psi|beta>:       0.75 MB

     Dynamical RAM for                 psi:     162.14 MB

     Dynamical RAM for                hpsi:     162.14 MB

     Dynamical RAM for                spsi:     162.14 MB

     Dynamical RAM for      wfcinit/wfcrot:     136.28 MB

     Dynamical RAM for           addusdens:     576.89 MB

     Estimated static dynamical RAM per process >     434.96 MB

     Estimated max dynamical RAM per process >    1011.85 MB

     Estimated total dynamical RAM >       5.93 GB

     Check: negative core charge=   -0.000001

     Initial potential from superposition of free atoms

     starting charge  201.80551, renormalised to  202.00000

     negative rho (up, down):  1.028E-03 0.000E+00


---------------------------------------------------------------------------------
Carrying out rVV10 run using the following parameters:
Nqs =      20    Nr_points =    1024   r_max =   100.000
b_value =  6.30000    beta =  0.00901
     q_mesh =  0.00010000  0.00030000  0.00058939  0.00100810
               0.00161396  0.00249058  0.00375900  0.00559430
               0.00824984  0.01209221  0.01765183  0.02569619
               0.03733578  0.05417739  0.07854596  0.11380545
               0.16482331  0.23864234  0.34545298  0.50000000

Gradients computed in Reciprocal space

---------------------------------------------------------------------------------


     Starting wfcs are  202 randomized atomic wfcs

     total cpu time spent up to now is       61.2 secs

     Self-consistent Calculation

     iteration #  1     ecut=    70.00 Ry     beta= 0.70
     Davidson diagonalization with overlap
     ethr =  1.00E-02,  avg # of iterations =  2.0

     negative rho (up, down):  1.105E-03 0.000E+00

     total cpu time spent up to now is      159.6 secs

     total energy              =    -624.68392956 Ry
     Harris-Foulkes estimate   =    -628.22324538 Ry
     estimated scf accuracy    <       5.88477947 Ry

     iteration #  2     ecut=    70.00 Ry     beta= 0.70
     Davidson diagonalization with overlap
     ethr =  2.91E-03,  avg # of iterations =  5.0

     negative rho (up, down):  1.303E-03 0.000E+00

     total cpu time spent up to now is      248.5 secs

     total energy              =    -625.45545679 Ry
     Harris-Foulkes estimate   =    -625.67380191 Ry
     estimated scf accuracy    <       0.33540218 Ry

     iteration #  3     ecut=    70.00 Ry     beta= 0.70
     Davidson diagonalization with overlap
     ethr =  1.66E-04,  avg # of iterations =  9.0

     negative rho (up, down):  1.352E-03 0.000E+00

     total cpu time spent up to now is      348.8 secs

     total energy              =    -625.40891036 Ry
     Harris-Foulkes estimate   =    -625.80186671 Ry
     estimated scf accuracy    <       1.02120954 Ry

     iteration #  4     ecut=    70.00 Ry     beta= 0.70
     Davidson diagonalization with overlap
     ethr =  1.66E-04,  avg # of iterations =  7.0

     negative rho (up, down):  1.475E-03 0.000E+00

     total cpu time spent up to now is      436.1 secs

     total energy              =    -625.60283575 Ry
     Harris-Foulkes estimate   =    -625.61257125 Ry
     estimated scf accuracy    <       0.02678969 Ry

     iteration #  5     ecut=    70.00 Ry     beta= 0.70
     Davidson diagonalization with overlap
     ethr =  1.33E-05,  avg # of iterations = 15.0

     negative rho (up, down):  1.649E-03 0.000E+00

     total cpu time spent up to now is      534.7 secs

     total energy              =    -625.60717735 Ry
     Harris-Foulkes estimate   =    -625.61039940 Ry
     estimated scf accuracy    <       0.00668698 Ry

     iteration #  6     ecut=    70.00 Ry     beta= 0.70
     Davidson diagonalization with overlap
     ethr =  3.31E-06,  avg # of iterations =  5.0

     negative rho (up, down):  1.810E-03 0.000E+00

     total cpu time spent up to now is      621.2 secs

     total energy              =    -625.60859425 Ry
     Harris-Foulkes estimate   =    -625.60871015 Ry
     estimated scf accuracy    <       0.00018747 Ry

     iteration #  7     ecut=    70.00 Ry     beta= 0.70
     Davidson diagonalization with overlap
     ethr =  9.28E-08,  avg # of iterations =  5.0

     negative rho (up, down):  1.874E-03 0.000E+00

     total cpu time spent up to now is      709.0 secs

     total energy              =    -625.60864263 Ry
     Harris-Foulkes estimate   =    -625.60867014 Ry
     estimated scf accuracy    <       0.00003884 Ry

     iteration #  8     ecut=    70.00 Ry     beta= 0.70
     Davidson diagonalization with overlap
     ethr =  1.92E-08,  avg # of iterations =  2.0

     negative rho (up, down):  1.880E-03 0.000E+00

     total cpu time spent up to now is      792.2 secs

     total energy              =    -625.60865103 Ry
     Harris-Foulkes estimate   =    -625.60865361 Ry
     estimated scf accuracy    <       0.00000342 Ry

     iteration #  9     ecut=    70.00 Ry     beta= 0.70
     Davidson diagonalization with overlap
     ethr =  1.69E-09,  avg # of iterations =  3.0

     negative rho (up, down):  1.882E-03 0.000E+00

     total cpu time spent up to now is      875.0 secs

     total energy              =    -625.60865149 Ry
     Harris-Foulkes estimate   =    -625.60865256 Ry
     estimated scf accuracy    <       0.00000198 Ry

     iteration # 10     ecut=    70.00 Ry     beta= 0.70
     Davidson diagonalization with overlap
     ethr =  9.78E-10,  avg # of iterations =  2.0

     negative rho (up, down):  1.884E-03 0.000E+00

     total cpu time spent up to now is      949.8 secs

     End of self-consistent calculation

          k = 0.0000 0.0000 0.0000 (131685 PWs)   bands (ev):

   -21.1721 -20.2363 -20.2361 -20.2359 -20.2356 -20.2346 -20.2329 -18.4004
   -18.4002 -18.3999 -18.3997 -18.3989 -18.3983 -17.5074 -17.5074 -17.5071
   -17.5068 -17.5064 -17.5058 -15.3625 -15.3622 -15.3620 -15.3613 -15.3613
   -15.3606 -14.3547 -14.3543 -14.3543 -14.3537 -14.3536 -14.3532 -13.0134
   -13.0132 -13.0130 -13.0127 -13.0126 -13.0125 -10.6521 -10.6520 -10.6520
   -10.6515 -10.6513 -10.6512 -10.5305 -10.5303 -10.5300 -10.5298 -10.5293
   -10.5292  -9.3149  -9.1574  -9.1573  -9.1572  -9.1570  -9.1565  -9.1563
    -8.3048  -8.1917  -8.1902  -8.1900  -8.1897  -8.1886  -7.9096  -7.9095
    -7.9091  -7.9086  -7.9081  -7.9080  -7.8577  -7.8573  -7.8570  -7.8568
    -7.8561  -7.8561  -7.8265  -6.2625  -6.2622  -6.2619  -6.2618  -6.2611
    -6.2609  -6.0599  -6.0587  -6.0582  -6.0581  -6.0575  -6.0447  -5.1612
    -5.1604  -5.1602  -5.1595  -5.1594  -5.1528  -4.7898  -4.7898  -3.1747
    -3.1742  -3.1741  -3.1739  -3.1736  -3.1716  -0.3810  -0.3794  -0.3793
    -0.3788  -0.3784  -0.3779   1.3547   1.4701   1.4749   1.4772   1.4772
     1.4775   1.4781   2.2392   2.2572   2.4868   2.5933   2.5954   2.6012
     2.6504

     occupation numbers 
     1.0000   1.0000   1.0000   1.0000   1.0000   1.0000   1.0000   1.0000
     1.0000   1.0000   1.0000   1.0000   1.0000   1.0000   1.0000   1.0000
     1.0000   1.0000   1.0000   1.0000   1.0000   1.0000   1.0000   1.0000
     1.0000   1.0000   1.0000   1.0000   1.0000   1.0000   1.0000   1.0000
     1.0000   1.0000   1.0000   1.0000   1.0000   1.0000   1.0000   1.0000
     1.0000   1.0000   1.0000   1.0000   1.0000   1.0000   1.0000   1.0000
     1.0000   1.0000   1.0000   1.0000   1.0000   1.0000   1.0000   1.0000
     1.0000   1.0000   1.0000   1.0000   1.0000   1.0000   1.0000   1.0000
     1.0000   1.0000   1.0000   1.0000   1.0000   1.0000   1.0000   1.0000
     1.0000   1.0000   1.0000   1.0000   1.0000   1.0000   1.0000   1.0000
     1.0000   1.0000   1.0000   1.0000   1.0000   1.0000   1.0000   1.0000
     1.0000   1.0000   1.0000   1.0000   1.0000   1.0000   1.0000   1.0000
     1.0000   1.0000   1.0000   1.0000   1.0000   0.0000   0.0000   0.0000
     0.0000   0.0000   0.0000   0.0000   0.0000   0.0000   0.0000   0.0000
     0.0000   0.0000   0.0000   0.0000   0.0000   0.0000   0.0000   0.0000
     0.0000

     the Fermi energy is    -1.7993 ev

!    total energy              =    -625.60865163 Ry
     Harris-Foulkes estimate   =    -625.60865194 Ry
     estimated scf accuracy    <       0.00000015 Ry

     The total energy is the sum of the following terms:

     one-electron contribution =   -3934.34796115 Ry
     hartree contribution      =    2004.26724660 Ry
     xc contribution           =    -235.33823880 Ry
     ewald contribution        =    1539.81030172 Ry
     smearing contrib. (-TS)   =       0.00000000 Ry

     convergence has been achieved in  10 iterations

     Writing output data file rotate-0.save/

     init_run     :     59.45s CPU     60.68s WALL (       1 calls)
     electrons    :    874.48s CPU    888.75s WALL (       1 calls)

     Called by init_run:
     wfcinit      :     32.13s CPU     32.35s WALL (       1 calls)
     wfcinit:atom :      0.04s CPU      0.07s WALL (       1 calls)
     wfcinit:wfcr :     31.86s CPU     31.98s WALL (       1 calls)
     potinit      :     14.26s CPU     14.92s WALL (       1 calls)
     hinit0       :      6.72s CPU      6.74s WALL (       1 calls)

     Called by electrons:
     c_bands      :    583.66s CPU    586.42s WALL (      10 calls)
     sum_band     :    139.13s CPU    142.13s WALL (      10 calls)
     v_of_rho     :    106.94s CPU    113.41s WALL (      11 calls)
     v_h          :      1.21s CPU      1.35s WALL (      11 calls)
     v_xc         :    105.73s CPU    112.05s WALL (      11 calls)
     newd         :     55.48s CPU     58.27s WALL (      11 calls)
     mix_rho      :      2.84s CPU      2.95s WALL (      10 calls)

     Called by c_bands:
     init_us_2    :      1.41s CPU      1.47s WALL (      21 calls)
     cegterg      :    580.72s CPU    583.47s WALL (      10 calls)

     Called by sum_band:
     sum_band:bec :      0.01s CPU      0.01s WALL (      10 calls)
     addusdens    :     77.42s CPU     80.09s WALL (      10 calls)

     Called by *egterg:
     h_psi        :    317.21s CPU    319.23s WALL (      66 calls)
     s_psi        :     99.38s CPU     99.43s WALL (      66 calls)
     g_psi        :      0.34s CPU      0.34s WALL (      55 calls)
     cdiaghg      :      5.87s CPU      5.87s WALL (      65 calls)
     cegterg:over :     79.12s CPU     79.16s WALL (      55 calls)
     cegterg:upda :     52.48s CPU     52.69s WALL (      55 calls)
     cegterg:last :     27.75s CPU     27.76s WALL (      10 calls)

     Called by h_psi:
     h_psi:pot    :    316.82s CPU    318.49s WALL (      66 calls)
     h_psi:calbec :     99.82s CPU     99.86s WALL (      66 calls)
     vloc_psi     :    117.62s CPU    119.23s WALL (      66 calls)
     add_vuspsi   :     99.37s CPU     99.40s WALL (      66 calls)

     General routines
     calbec       :    134.46s CPU    134.52s WALL (      76 calls)
     fft          :     61.76s CPU     64.17s WALL (     691 calls)
     ffts         :      0.66s CPU      0.67s WALL (      21 calls)
     fftw         :    118.04s CPU    119.64s WALL (    8186 calls)
     interpolate  :      1.53s CPU      1.56s WALL (      11 calls)

     Parallel routines
     fft_scatt_xy :     37.90s CPU     38.01s WALL (    8898 calls)
     fft_scatt_yz :     50.79s CPU     54.03s WALL (    8898 calls)

     PWSCF        :  15m34.61s CPU  15m50.38s WALL


   This run was terminated on:  13:28:38  15Jul2022            

=------------------------------------------------------------------------------=
   JOB DONE.
=------------------------------------------------------------------------------=
