
     Program PWSCF v.6.4.1 starts on  1Sep2022 at 14:16: 2 

     This program is part of the open-source Quantum ESPRESSO suite
     for quantum simulation of materials; please cite
         "P. Giannozzi et al., J. Phys.:Condens. Matter 21 395502 (2009);
         "P. Giannozzi et al., J. Phys.:Condens. Matter 29 465901 (2017);
          URL http://www.quantum-espresso.org", 
     in publications or presentations arising from this work. More details at
     http://www.quantum-espresso.org/quote

     Parallel version (MPI), running on     6 processors

     MPI processes distributed on     1 nodes
     R & G space division:  proc/nbgrp/npool/nimage =       6
     Reading input from distance-5.0.in

     Current dimensions of program PWSCF are:
     Max number of different atomic species (ntypx) = 10
     Max number of k-points (npk) =  40000
     Max angular momentum in pseudopotentials (lmaxx) =  3

     IMPORTANT: XC functional enforced from input :
     Exchange-correlation      = RVV10 ( 1  4 13  4 3 0)
     Any further DFT definition will be discarded
     Please, verify this is what you really want

               file H.pbe-rrkjus.UPF: wavefunction(s)  1S renormalized
               file V.pbe-spnl-rrkjus_psl.1.0.0.UPF: wavefunction(s)  3P 3D renormalized

     Subspace diagonalization in iterative solution of the eigenvalue problem:
     a serial algorithm will be used


     Parallelization info
     --------------------
     sticks:   dense  smooth     PW     G-vecs:    dense   smooth      PW
     Min        3051    1746    432               270999   117096   14629
     Max        3053    1747    437               271001   117099   14630
     Sum       18313   10477   2611              1626001   702581   87777



     bravais-lattice index     =            4
     lattice parameter (alat)  =      23.2937  a.u.
     unit-cell volume          =    8879.8548 (a.u.)^3
     number of atoms/cell      =           52
     number of atomic types    =            3
     number of electrons       =       211.00
     number of Kohn-Sham states=          127
     kinetic-energy cutoff     =      70.0000  Ry
     charge density cutoff     =     490.0000  Ry
     convergence threshold     =      1.0E-06
     mixing beta               =       0.7000
     number of iterations used =            8  plain     mixing
     Exchange-correlation      = RVV10 ( 1  4 13  4 3 0)

     celldm(1)=  23.293684  celldm(2)=   0.000000  celldm(3)=   0.811261
     celldm(4)=   0.000000  celldm(5)=   0.000000  celldm(6)=   0.000000

     crystal axes: (cart. coord. in units of alat)
               a(1) = (   1.000000   0.000000   0.000000 )  
               a(2) = (  -0.500000   0.866025   0.000000 )  
               a(3) = (   0.000000   0.000000   0.811261 )  

     reciprocal axes: (cart. coord. in units 2 pi/alat)
               b(1) = (  1.000000  0.577350 -0.000000 )  
               b(2) = (  0.000000  1.154701  0.000000 )  
               b(3) = (  0.000000 -0.000000  1.232649 )  


     PseudoPot. # 1 for H  read from file:
     /home/cristian/Escritorio/Proyecto_Grafeno/pseudopotenciales/H.pbe-rrkjus.UPF
     MD5 check sum: 7cc9d459525c9a0585f487a71c3c9563
     Pseudo is Ultrasoft, Zval =  1.0
     Generated by new atomic code, or converted to UPF format
     Using radial grid of 1061 points,  2 beta functions with: 
                l(1) =   0
                l(2) =   0
     Q(r) pseudized with 0 coefficients 


     PseudoPot. # 2 for C  read from file:
     /home/cristian/Escritorio/Proyecto_Grafeno/pseudopotenciales/C.pbe-n-rrkjus_psl.1.0.0.UPF
     MD5 check sum: 1fdd950c42eb37d8afe3dd2f8d12311e
     Pseudo is Ultrasoft + core correction, Zval =  4.0
     Generated using "atomic" code by A. Dal Corso v.6.3MaX
     Using radial grid of 1073 points,  4 beta functions with: 
                l(1) =   0
                l(2) =   0
                l(3) =   1
                l(4) =   1
     Q(r) pseudized with 0 coefficients 


     PseudoPot. # 3 for V  read from file:
     /home/cristian/Escritorio/Proyecto_Grafeno/pseudopotenciales/V.pbe-spnl-rrkjus_psl.1.0.0.UPF
     MD5 check sum: 79b3eb63147daf0b665d9f1bcc691206
     Pseudo is Ultrasoft + core correction, Zval = 13.0
     Generated using "atomic" code by A. Dal Corso v.6.2.2
     Using radial grid of 1181 points,  6 beta functions with: 
                l(1) =   0
                l(2) =   0
                l(3) =   1
                l(4) =   1
                l(5) =   2
                l(6) =   2
     Q(r) pseudized with 0 coefficients 


     vdW kernel table read from file rVV10_kernel_table
     MD5 check sum: b8e2538accc0c0b3206b45ba4daaba6c

     atomic species   valence    mass     pseudopotential
        H              1.00     1.00794     H ( 1.00)
        C              4.00    12.01070     C ( 1.00)
        V             13.00    50.94150     V ( 1.00)

     Starting magnetic structure 
     atomic species   magnetization
        H            0.500
        C            0.300
        V            0.800

      2 Sym. Ops. (no inversion) found


                                    s                        frac. trans.

      isym =  1     identity                                     

 cryst.   s( 1) = (     1          0          0      )
                  (     0          1          0      )
                  (     0          0          1      )

 cart.    s( 1) = (  1.0000000  0.0000000  0.0000000 )
                  (  0.0000000  1.0000000  0.0000000 )
                  (  0.0000000  0.0000000  1.0000000 )


      isym =  2     inv. 180 deg rotation - cart. axis [0,0,1]   

 cryst.   s( 2) = (     1          0          0      )
                  (     0          1          0      )
                  (     0          0         -1      )

 cart.    s( 2) = (  1.0000000  0.0000000  0.0000000 )
                  (  0.0000000  1.0000000  0.0000000 )
                  (  0.0000000  0.0000000 -1.0000000 )


     point group C_s (m)    
     there are  2 classes
     the character table:

       E     s    
A'     1.00  1.00
A''    1.00 -1.00

     the symmetry operations in each class and the name of the first element:

     E        1
          identity                                               
     s        2
          inv. 180 deg rotation - cart. axis [0,0,1]             

   Cartesian axes

     site n.     atom                  positions (alat units)
         1           H   tau(   1) = (   0.2694937   0.4041452   0.4056306  )
         2           H   tau(   2) = (   0.3305063   0.4041452   0.4056306  )
         3           C   tau(   3) = (   0.0000000   0.0000000   0.0000000  )
         4           C   tau(   4) = (   0.0000000   0.1154701   0.0000000  )
         5           C   tau(   5) = (  -0.1000000   0.1732051   0.0000000  )
         6           C   tau(   6) = (  -0.1000000   0.2886751   0.0000000  )
         7           C   tau(   7) = (  -0.2000000   0.3464102   0.0000000  )
         8           C   tau(   8) = (  -0.2000000   0.4618802   0.0000000  )
         9           C   tau(   9) = (  -0.3000000   0.5196152   0.0000000  )
        10           C   tau(  10) = (  -0.3000000   0.6350853   0.0000000  )
        11           C   tau(  11) = (  -0.4000000   0.6928203   0.0000000  )
        12           C   tau(  12) = (  -0.4000000   0.8082904   0.0000000  )
        13           C   tau(  13) = (   0.2000000   0.0000000   0.0000000  )
        14           C   tau(  14) = (   0.2000000   0.1154701   0.0000000  )
        15           C   tau(  15) = (   0.1000000   0.1732051   0.0000000  )
        16           C   tau(  16) = (   0.1000000   0.2886751   0.0000000  )
        17           C   tau(  17) = (   0.0000000   0.3464102   0.0000000  )
        18           C   tau(  18) = (   0.0000000   0.4618802   0.0000000  )
        19           C   tau(  19) = (  -0.1000000   0.5196152   0.0000000  )
        20           C   tau(  20) = (  -0.1000000   0.6350853   0.0000000  )
        21           C   tau(  21) = (  -0.2000000   0.6928203   0.0000000  )
        22           C   tau(  22) = (  -0.2000000   0.8082904   0.0000000  )
        23           C   tau(  23) = (   0.4000000   0.0000000   0.0000000  )
        24           C   tau(  24) = (   0.4000000   0.1154701   0.0000000  )
        25           C   tau(  25) = (   0.3000000   0.1732051   0.0000000  )
        26           C   tau(  26) = (   0.3000000   0.2886751   0.0000000  )
        27           C   tau(  27) = (   0.2000000   0.3464102   0.0000000  )
        28           V   tau(  28) = (   0.2000000   0.4618802   0.0000000  )
        29           C   tau(  29) = (   0.1000000   0.5196152   0.0000000  )
        30           C   tau(  30) = (   0.1000000   0.6350853   0.0000000  )
        31           C   tau(  31) = (   0.0000000   0.6928203   0.0000000  )
        32           C   tau(  32) = (   0.0000000   0.8082904   0.0000000  )
        33           C   tau(  33) = (   0.6000000   0.0000000   0.0000000  )
        34           C   tau(  34) = (   0.6000000   0.1154701   0.0000000  )
        35           C   tau(  35) = (   0.5000000   0.1732051   0.0000000  )
        36           C   tau(  36) = (   0.5000000   0.2886751   0.0000000  )
        37           C   tau(  37) = (   0.4000000   0.3464102   0.0000000  )
        38           C   tau(  38) = (   0.4000000   0.4618802   0.0000000  )
        39           C   tau(  39) = (   0.3000000   0.5196152   0.0000000  )
        40           C   tau(  40) = (   0.3000000   0.6350853   0.0000000  )
        41           C   tau(  41) = (   0.2000000   0.6928203   0.0000000  )
        42           C   tau(  42) = (   0.2000000   0.8082904   0.0000000  )
        43           C   tau(  43) = (   0.8000000   0.0000000   0.0000000  )
        44           C   tau(  44) = (   0.8000000   0.1154701   0.0000000  )
        45           C   tau(  45) = (   0.7000000   0.1732051   0.0000000  )
        46           C   tau(  46) = (   0.7000000   0.2886751   0.0000000  )
        47           C   tau(  47) = (   0.6000000   0.3464102   0.0000000  )
        48           C   tau(  48) = (   0.6000000   0.4618802   0.0000000  )
        49           C   tau(  49) = (   0.5000000   0.5196152   0.0000000  )
        50           C   tau(  50) = (   0.5000000   0.6350853   0.0000000  )
        51           C   tau(  51) = (   0.4000000   0.6928203   0.0000000  )
        52           C   tau(  52) = (   0.4000000   0.8082904   0.0000000  )

   Crystallographic axes

     site n.     atom                  positions (cryst. coord.)
         1           H   tau(   1) = (  0.5028270  0.4666667  0.5000000  )
         2           H   tau(   2) = (  0.5638397  0.4666667  0.5000000  )
         3           C   tau(   3) = (  0.0000000  0.0000000  0.0000000  )
         4           C   tau(   4) = (  0.0666667  0.1333333  0.0000000  )
         5           C   tau(   5) = (  0.0000000  0.2000000  0.0000000  )
         6           C   tau(   6) = (  0.0666667  0.3333333  0.0000000  )
         7           C   tau(   7) = (  0.0000000  0.4000000  0.0000000  )
         8           C   tau(   8) = (  0.0666667  0.5333333  0.0000000  )
         9           C   tau(   9) = (  0.0000000  0.6000000  0.0000000  )
        10           C   tau(  10) = (  0.0666667  0.7333333  0.0000000  )
        11           C   tau(  11) = (  0.0000000  0.8000000  0.0000000  )
        12           C   tau(  12) = (  0.0666667  0.9333333  0.0000000  )
        13           C   tau(  13) = (  0.2000000  0.0000000  0.0000000  )
        14           C   tau(  14) = (  0.2666667  0.1333333  0.0000000  )
        15           C   tau(  15) = (  0.2000000  0.2000000  0.0000000  )
        16           C   tau(  16) = (  0.2666667  0.3333333  0.0000000  )
        17           C   tau(  17) = (  0.2000000  0.4000000  0.0000000  )
        18           C   tau(  18) = (  0.2666667  0.5333333  0.0000000  )
        19           C   tau(  19) = (  0.2000000  0.6000000  0.0000000  )
        20           C   tau(  20) = (  0.2666667  0.7333333  0.0000000  )
        21           C   tau(  21) = (  0.2000000  0.8000000  0.0000000  )
        22           C   tau(  22) = (  0.2666667  0.9333333  0.0000000  )
        23           C   tau(  23) = (  0.4000000  0.0000000  0.0000000  )
        24           C   tau(  24) = (  0.4666667  0.1333333  0.0000000  )
        25           C   tau(  25) = (  0.4000000  0.2000000  0.0000000  )
        26           C   tau(  26) = (  0.4666667  0.3333333  0.0000000  )
        27           C   tau(  27) = (  0.4000000  0.4000000  0.0000000  )
        28           V   tau(  28) = (  0.4666667  0.5333333  0.0000000  )
        29           C   tau(  29) = (  0.4000000  0.6000000  0.0000000  )
        30           C   tau(  30) = (  0.4666667  0.7333333  0.0000000  )
        31           C   tau(  31) = (  0.4000000  0.8000000  0.0000000  )
        32           C   tau(  32) = (  0.4666667  0.9333333  0.0000000  )
        33           C   tau(  33) = (  0.6000000  0.0000000  0.0000000  )
        34           C   tau(  34) = (  0.6666667  0.1333333  0.0000000  )
        35           C   tau(  35) = (  0.6000000  0.2000000  0.0000000  )
        36           C   tau(  36) = (  0.6666667  0.3333333  0.0000000  )
        37           C   tau(  37) = (  0.6000000  0.4000000  0.0000000  )
        38           C   tau(  38) = (  0.6666667  0.5333333  0.0000000  )
        39           C   tau(  39) = (  0.6000000  0.6000000  0.0000000  )
        40           C   tau(  40) = (  0.6666667  0.7333333  0.0000000  )
        41           C   tau(  41) = (  0.6000000  0.8000000  0.0000000  )
        42           C   tau(  42) = (  0.6666667  0.9333333  0.0000000  )
        43           C   tau(  43) = (  0.8000000  0.0000000  0.0000000  )
        44           C   tau(  44) = (  0.8666667  0.1333333  0.0000000  )
        45           C   tau(  45) = (  0.8000000  0.2000000  0.0000000  )
        46           C   tau(  46) = (  0.8666667  0.3333333  0.0000000  )
        47           C   tau(  47) = (  0.8000000  0.4000000  0.0000000  )
        48           C   tau(  48) = (  0.8666667  0.5333333  0.0000000  )
        49           C   tau(  49) = (  0.8000000  0.6000000  0.0000000  )
        50           C   tau(  50) = (  0.8666667  0.7333333  0.0000000  )
        51           C   tau(  51) = (  0.8000000  0.8000000  0.0000000  )
        52           C   tau(  52) = (  0.8666667  0.9333333  0.0000000  )

     number of k points=     1  Marzari-Vanderbilt smearing, width (Ry)=  0.0010
                       cart. coord. in units 2pi/alat
        k(    1) = (   0.0000000   0.0000000   0.0000000), wk =   1.0000000

                       cryst. coord.
        k(    1) = (   0.0000000   0.0000000   0.0000000), wk =   1.0000000

     Dense  grid:  1626001 G-vectors     FFT dimensions: ( 180, 180, 135)

     Smooth grid:   702581 G-vectors     FFT dimensions: ( 125, 125, 108)

     Dynamical RAM for                 wfc:      28.36 MB

     Dynamical RAM for     wfc (w. buffer):      85.09 MB

     Dynamical RAM for           str. fact:      12.41 MB

     Dynamical RAM for           local pot:       0.00 MB

     Dynamical RAM for          nlocal pot:      92.46 MB

     Dynamical RAM for                qrad:      19.73 MB

     Dynamical RAM for          rho,v,vnew:      58.92 MB

     Dynamical RAM for               rhoin:      19.64 MB

     Dynamical RAM for            rho*nmix:     132.32 MB

     Dynamical RAM for           G-vectors:      16.40 MB

     Dynamical RAM for          h,s,v(r/c):      11.81 MB

     Dynamical RAM for          <psi|beta>:       0.80 MB

     Dynamical RAM for                 psi:     113.46 MB

     Dynamical RAM for                hpsi:     113.46 MB

     Dynamical RAM for                spsi:     113.46 MB

     Dynamical RAM for      wfcinit/wfcrot:      93.90 MB

     Dynamical RAM for           addusdens:     975.89 MB

     Estimated static dynamical RAM per process >     487.63 MB

     Estimated max dynamical RAM per process >       1.43 GB

     Estimated total dynamical RAM >       8.58 GB
     Generating pointlists ...
     new r_m :   0.0252 (alat units)  0.5862 (a.u.) for type    1
     new r_m :   0.0476 (alat units)  1.1095 (a.u.) for type    2
     new r_m :   0.0476 (alat units)  1.1095 (a.u.) for type    3

     Check: negative core charge=   -0.000002

     Initial potential from superposition of free atoms

     starting charge  210.80465, renormalised to  211.00000

     negative rho (up, down):  9.037E-05 1.066E-02


---------------------------------------------------------------------------------
Carrying out rVV10 run using the following parameters:
Nqs =      20    Nr_points =    1024   r_max =   100.000
b_value =  6.30000    beta =  0.00901
     q_mesh =  0.00010000  0.00030000  0.00058939  0.00100810
               0.00161396  0.00249058  0.00375900  0.00559430
               0.00824984  0.01209221  0.01765183  0.02569619
               0.03733578  0.05417739  0.07854596  0.11380545
               0.16482331  0.23864234  0.34545298  0.50000000

Gradients computed in Reciprocal space

---------------------------------------------------------------------------------


     Starting wfcs are  208 randomized atomic wfcs

     total cpu time spent up to now is       78.6 secs

     Self-consistent Calculation

     iteration #  1     ecut=    70.00 Ry     beta= 0.70
     Davidson diagonalization with overlap
     ethr =  1.00E-02,  avg # of iterations =  3.0

     negative rho (up, down):  1.702E-04 8.981E-03

     total cpu time spent up to now is      211.4 secs

     total energy              =    -753.64543283 Ry
     Harris-Foulkes estimate   =    -756.85810341 Ry
     estimated scf accuracy    <      10.96334150 Ry

     total magnetization       =     5.00 Bohr mag/cell
     absolute magnetization    =     6.00 Bohr mag/cell

     iteration #  2     ecut=    70.00 Ry     beta= 0.70
     Davidson diagonalization with overlap
     ethr =  5.20E-03,  avg # of iterations =  6.0

     negative rho (up, down):  2.090E-03 1.493E-01

     total cpu time spent up to now is      332.7 secs

     total energy              =    -747.39443629 Ry
     Harris-Foulkes estimate   =    -765.51660031 Ry
     estimated scf accuracy    <      62.38428665 Ry

     total magnetization       =     3.00 Bohr mag/cell
     absolute magnetization    =     3.36 Bohr mag/cell

     iteration #  3     ecut=    70.00 Ry     beta= 0.70
     Davidson diagonalization with overlap
     ethr =  5.20E-03,  avg # of iterations =  5.0

     negative rho (up, down):  1.355E-03 1.869E-02

     total cpu time spent up to now is      511.4 secs

     total energy              =    -755.74136745 Ry
     Harris-Foulkes estimate   =    -758.33929339 Ry
     estimated scf accuracy    <      12.48532724 Ry

     total magnetization       =     5.00 Bohr mag/cell
     absolute magnetization    =     5.77 Bohr mag/cell

     iteration #  4     ecut=    70.00 Ry     beta= 0.70
     Davidson diagonalization with overlap
     ethr =  5.20E-03,  avg # of iterations =  2.5

     negative rho (up, down):  4.033E-02 2.019E-02

     total cpu time spent up to now is      606.9 secs

     total energy              =    -757.09317149 Ry
     Harris-Foulkes estimate   =    -757.48132896 Ry
     estimated scf accuracy    <       1.17953312 Ry

     total magnetization       =     1.00 Bohr mag/cell
     absolute magnetization    =     1.70 Bohr mag/cell

     iteration #  5     ecut=    70.00 Ry     beta= 0.70
     Davidson diagonalization with overlap
     ethr =  5.59E-04,  avg # of iterations =  9.0

     negative rho (up, down):  4.133E-02 1.722E-02

     total cpu time spent up to now is      723.4 secs

     total energy              =    -757.23935528 Ry
     Harris-Foulkes estimate   =    -757.29815857 Ry
     estimated scf accuracy    <       0.20788611 Ry

     total magnetization       =     1.00 Bohr mag/cell
     absolute magnetization    =     1.49 Bohr mag/cell

     iteration #  6     ecut=    70.00 Ry     beta= 0.70
     Davidson diagonalization with overlap
     ethr =  9.85E-05,  avg # of iterations =  4.0

     negative rho (up, down):  2.939E-02 1.481E-02

     total cpu time spent up to now is      843.5 secs

     total energy              =    -757.27768260 Ry
     Harris-Foulkes estimate   =    -757.34317416 Ry
     estimated scf accuracy    <       0.30140594 Ry

     total magnetization       =     1.00 Bohr mag/cell
     absolute magnetization    =     1.42 Bohr mag/cell

     iteration #  7     ecut=    70.00 Ry     beta= 0.70
     Davidson diagonalization with overlap
     ethr =  9.85E-05,  avg # of iterations =  6.0

     negative rho (up, down):  3.045E-02 1.277E-02

     total cpu time spent up to now is      952.7 secs

     total energy              =    -757.31649273 Ry
     Harris-Foulkes estimate   =    -757.32199308 Ry
     estimated scf accuracy    <       0.03551537 Ry

     total magnetization       =     1.00 Bohr mag/cell
     absolute magnetization    =     1.36 Bohr mag/cell

     iteration #  8     ecut=    70.00 Ry     beta= 0.70
     Davidson diagonalization with overlap
     ethr =  1.68E-05,  avg # of iterations =  3.5

     negative rho (up, down):  3.029E-02 2.015E-02

     total cpu time spent up to now is     1071.7 secs

     total energy              =    -757.32356651 Ry
     Harris-Foulkes estimate   =    -757.32896062 Ry
     estimated scf accuracy    <       0.04107996 Ry

     total magnetization       =     1.00 Bohr mag/cell
     absolute magnetization    =     1.38 Bohr mag/cell

     iteration #  9     ecut=    70.00 Ry     beta= 0.70
     Davidson diagonalization with overlap
     ethr =  1.68E-05,  avg # of iterations =  3.5

     negative rho (up, down):  3.345E-02 1.655E-02

     total cpu time spent up to now is     1175.5 secs

     total energy              =    -757.32715706 Ry
     Harris-Foulkes estimate   =    -757.32844298 Ry
     estimated scf accuracy    <       0.00593919 Ry

     total magnetization       =     1.00 Bohr mag/cell
     absolute magnetization    =     1.39 Bohr mag/cell

     iteration # 10     ecut=    70.00 Ry     beta= 0.70
     Davidson diagonalization with overlap
     ethr =  2.81E-06,  avg # of iterations =  3.5

     negative rho (up, down):  3.598E-02 1.307E-02

     total cpu time spent up to now is     1276.0 secs

     total energy              =    -757.32680624 Ry
     Harris-Foulkes estimate   =    -757.32845761 Ry
     estimated scf accuracy    <       0.01107969 Ry

     total magnetization       =     1.00 Bohr mag/cell
     absolute magnetization    =     1.42 Bohr mag/cell

     iteration # 11     ecut=    70.00 Ry     beta= 0.70
     Davidson diagonalization with overlap
     ethr =  2.81E-06,  avg # of iterations =  3.0

     negative rho (up, down):  3.417E-02 1.124E-02

     total cpu time spent up to now is     1374.8 secs

     total energy              =    -757.32814247 Ry
     Harris-Foulkes estimate   =    -757.32774478 Ry
     estimated scf accuracy    <       0.00880931 Ry

     total magnetization       =     1.00 Bohr mag/cell
     absolute magnetization    =     1.42 Bohr mag/cell

     iteration # 12     ecut=    70.00 Ry     beta= 0.70
     Davidson diagonalization with overlap
     ethr =  2.81E-06,  avg # of iterations =  3.0

     negative rho (up, down):  3.314E-02 2.212E-03

     total cpu time spent up to now is     1472.1 secs

     total energy              =    -757.32986107 Ry
     Harris-Foulkes estimate   =    -757.32858711 Ry
     estimated scf accuracy    <       0.00043473 Ry

     total magnetization       =     1.00 Bohr mag/cell
     absolute magnetization    =     1.43 Bohr mag/cell

     iteration # 13     ecut=    70.00 Ry     beta= 0.70
     Davidson diagonalization with overlap
     ethr =  2.06E-07,  avg # of iterations =  4.0

     negative rho (up, down):  3.347E-02 2.873E-03

     total cpu time spent up to now is     1584.7 secs

     total energy              =    -757.32991274 Ry
     Harris-Foulkes estimate   =    -757.32995786 Ry
     estimated scf accuracy    <       0.00007317 Ry

     total magnetization       =     1.00 Bohr mag/cell
     absolute magnetization    =     1.46 Bohr mag/cell

     iteration # 14     ecut=    70.00 Ry     beta= 0.70
     Davidson diagonalization with overlap
     ethr =  3.47E-08,  avg # of iterations =  3.0

     negative rho (up, down):  3.383E-02 3.778E-03

     total cpu time spent up to now is     1697.0 secs

     total energy              =    -757.32995171 Ry
     Harris-Foulkes estimate   =    -757.32994276 Ry
     estimated scf accuracy    <       0.00007365 Ry

     total magnetization       =     1.00 Bohr mag/cell
     absolute magnetization    =     1.48 Bohr mag/cell

     iteration # 15     ecut=    70.00 Ry     beta= 0.70
     Davidson diagonalization with overlap
     ethr =  3.47E-08,  avg # of iterations =  3.0

     negative rho (up, down):  3.388E-02 2.686E-03

     total cpu time spent up to now is     1795.3 secs

     total energy              =    -757.32996613 Ry
     Harris-Foulkes estimate   =    -757.32996361 Ry
     estimated scf accuracy    <       0.00001892 Ry

     total magnetization       =     1.00 Bohr mag/cell
     absolute magnetization    =     1.49 Bohr mag/cell

     iteration # 16     ecut=    70.00 Ry     beta= 0.70
     Davidson diagonalization with overlap
     ethr =  8.97E-09,  avg # of iterations =  3.0

     negative rho (up, down):  3.393E-02 2.818E-03

     total cpu time spent up to now is     1894.8 secs

     total energy              =    -757.32996792 Ry
     Harris-Foulkes estimate   =    -757.32996991 Ry
     estimated scf accuracy    <       0.00003994 Ry

     total magnetization       =     1.00 Bohr mag/cell
     absolute magnetization    =     1.50 Bohr mag/cell

     iteration # 17     ecut=    70.00 Ry     beta= 0.70
     Davidson diagonalization with overlap
     ethr =  8.97E-09,  avg # of iterations =  2.0

     negative rho (up, down):  3.386E-02 1.652E-03

     total cpu time spent up to now is     1989.3 secs

     total energy              =    -757.32996932 Ry
     Harris-Foulkes estimate   =    -757.32996909 Ry
     estimated scf accuracy    <       0.00002167 Ry

     total magnetization       =     1.00 Bohr mag/cell
     absolute magnetization    =     1.51 Bohr mag/cell

     iteration # 18     ecut=    70.00 Ry     beta= 0.70
     Davidson diagonalization with overlap
     ethr =  8.97E-09,  avg # of iterations =  2.5

     negative rho (up, down):  3.395E-02 2.225E-03

     total cpu time spent up to now is     2086.4 secs

     total energy              =    -757.32996886 Ry
     Harris-Foulkes estimate   =    -757.32997202 Ry
     estimated scf accuracy    <       0.00001204 Ry

     total magnetization       =     1.00 Bohr mag/cell
     absolute magnetization    =     1.51 Bohr mag/cell

     iteration # 19     ecut=    70.00 Ry     beta= 0.70
     Davidson diagonalization with overlap
     ethr =  5.71E-09,  avg # of iterations =  2.5

     negative rho (up, down):  3.385E-02 2.151E-03

     total cpu time spent up to now is     2186.3 secs

     total energy              =    -757.32996478 Ry
     Harris-Foulkes estimate   =    -757.32997265 Ry
     estimated scf accuracy    <       0.00003560 Ry

     total magnetization       =     1.00 Bohr mag/cell
     absolute magnetization    =     1.52 Bohr mag/cell

     iteration # 20     ecut=    70.00 Ry     beta= 0.70
     Davidson diagonalization with overlap
     ethr =  5.71E-09,  avg # of iterations =  3.0

     negative rho (up, down):  3.383E-02 2.145E-03

     total cpu time spent up to now is     2286.5 secs

     total energy              =    -757.32996669 Ry
     Harris-Foulkes estimate   =    -757.32996633 Ry
     estimated scf accuracy    <       0.00003494 Ry

     total magnetization       =     1.00 Bohr mag/cell
     absolute magnetization    =     1.51 Bohr mag/cell

     iteration # 21     ecut=    70.00 Ry     beta= 0.70
     Davidson diagonalization with overlap
     ethr =  5.71E-09,  avg # of iterations =  1.0

     negative rho (up, down):  3.391E-02 1.620E-03

     total cpu time spent up to now is     2381.6 secs

     total energy              =    -757.32997254 Ry
     Harris-Foulkes estimate   =    -757.32996863 Ry
     estimated scf accuracy    <       0.00002952 Ry

     total magnetization       =     1.00 Bohr mag/cell
     absolute magnetization    =     1.52 Bohr mag/cell

     iteration # 22     ecut=    70.00 Ry     beta= 0.70
     Davidson diagonalization with overlap
     ethr =  5.71E-09,  avg # of iterations =  2.5

     negative rho (up, down):  3.389E-02 1.813E-03

     total cpu time spent up to now is     2486.9 secs

     total energy              =    -757.32997573 Ry
     Harris-Foulkes estimate   =    -757.32997524 Ry
     estimated scf accuracy    <       0.00002468 Ry

     total magnetization       =     1.00 Bohr mag/cell
     absolute magnetization    =     1.53 Bohr mag/cell

     iteration # 23     ecut=    70.00 Ry     beta= 0.70
     Davidson diagonalization with overlap
     ethr =  5.71E-09,  avg # of iterations =  1.0

     negative rho (up, down):  3.388E-02 1.972E-03

     total cpu time spent up to now is     2584.5 secs

     total energy              =    -757.32997484 Ry
     Harris-Foulkes estimate   =    -757.32997597 Ry
     estimated scf accuracy    <       0.00002100 Ry

     total magnetization       =     1.00 Bohr mag/cell
     absolute magnetization    =     1.53 Bohr mag/cell

     iteration # 24     ecut=    70.00 Ry     beta= 0.70
     Davidson diagonalization with overlap
     ethr =  5.71E-09,  avg # of iterations =  1.0

     negative rho (up, down):  3.387E-02 2.213E-03

     total cpu time spent up to now is     2676.6 secs

     total energy              =    -757.32997432 Ry
     Harris-Foulkes estimate   =    -757.32997507 Ry
     estimated scf accuracy    <       0.00001624 Ry

     total magnetization       =     1.00 Bohr mag/cell
     absolute magnetization    =     1.53 Bohr mag/cell

     iteration # 25     ecut=    70.00 Ry     beta= 0.70
     Davidson diagonalization with overlap
     ethr =  5.71E-09,  avg # of iterations =  1.5

     negative rho (up, down):  3.387E-02 1.923E-03

     total cpu time spent up to now is     2773.5 secs

     total energy              =    -757.32997380 Ry
     Harris-Foulkes estimate   =    -757.32997495 Ry
     estimated scf accuracy    <       0.00001219 Ry

     total magnetization       =     1.00 Bohr mag/cell
     absolute magnetization    =     1.54 Bohr mag/cell

     iteration # 26     ecut=    70.00 Ry     beta= 0.70
     Davidson diagonalization with overlap
     ethr =  5.71E-09,  avg # of iterations =  2.5

     negative rho (up, down):  3.388E-02 1.738E-03

     total cpu time spent up to now is     2872.9 secs

     total energy              =    -757.32997449 Ry
     Harris-Foulkes estimate   =    -757.32997550 Ry
     estimated scf accuracy    <       0.00000353 Ry

     total magnetization       =     1.00 Bohr mag/cell
     absolute magnetization    =     1.54 Bohr mag/cell

     iteration # 27     ecut=    70.00 Ry     beta= 0.70
     Davidson diagonalization with overlap
     ethr =  1.67E-09,  avg # of iterations =  3.0

     negative rho (up, down):  3.388E-02 1.829E-03

     total cpu time spent up to now is     2972.0 secs

     total energy              =    -757.32997445 Ry
     Harris-Foulkes estimate   =    -757.32997537 Ry
     estimated scf accuracy    <       0.00000540 Ry

     total magnetization       =     1.00 Bohr mag/cell
     absolute magnetization    =     1.54 Bohr mag/cell

     iteration # 28     ecut=    70.00 Ry     beta= 0.70
     Davidson diagonalization with overlap
     ethr =  1.67E-09,  avg # of iterations =  6.0

     negative rho (up, down):  3.389E-02 1.613E-03

     total cpu time spent up to now is     3097.6 secs

     total energy              =    -757.32997642 Ry
     Harris-Foulkes estimate   =    -757.32997612 Ry
     estimated scf accuracy    <       0.00000109 Ry

     total magnetization       =     1.00 Bohr mag/cell
     absolute magnetization    =     1.54 Bohr mag/cell

     iteration # 29     ecut=    70.00 Ry     beta= 0.70
     Davidson diagonalization with overlap
     ethr =  5.15E-10,  avg # of iterations =  1.5

     negative rho (up, down):  3.390E-02 1.749E-03

     total cpu time spent up to now is     3193.3 secs

     total energy              =    -757.32997604 Ry
     Harris-Foulkes estimate   =    -757.32997649 Ry
     estimated scf accuracy    <       0.00000134 Ry

     total magnetization       =     1.00 Bohr mag/cell
     absolute magnetization    =     1.54 Bohr mag/cell

     iteration # 30     ecut=    70.00 Ry     beta= 0.70
     Davidson diagonalization with overlap
     ethr =  5.15E-10,  avg # of iterations =  3.5

     negative rho (up, down):  3.391E-02 1.605E-03

     Magnetic moment per site:
     atom:    1    charge:    0.2111    magn:    0.0000    constr:    0.0000
     atom:    2    charge:    0.2106    magn:    0.0000    constr:    0.0000
     atom:    3    charge:    1.7176    magn:   -0.0068    constr:    0.0000
     atom:    4    charge:    1.7157    magn:    0.0094    constr:    0.0000
     atom:    5    charge:    1.7183    magn:   -0.0042    constr:    0.0000
     atom:    6    charge:    1.7141    magn:    0.0026    constr:    0.0000
     atom:    7    charge:    1.7183    magn:   -0.0042    constr:    0.0000
     atom:    8    charge:    1.7157    magn:    0.0093    constr:    0.0000
     atom:    9    charge:    1.7177    magn:   -0.0068    constr:    0.0000
     atom:   10    charge:    1.7144    magn:    0.0310    constr:    0.0000
     atom:   11    charge:    1.7186    magn:   -0.0089    constr:    0.0000
     atom:   12    charge:    1.7146    magn:    0.0313    constr:    0.0000
     atom:   13    charge:    1.7186    magn:   -0.0089    constr:    0.0000
     atom:   14    charge:    1.7145    magn:    0.0231    constr:    0.0000
     atom:   15    charge:    1.7169    magn:   -0.0079    constr:    0.0000
     atom:   16    charge:    1.7111    magn:    0.0302    constr:    0.0000
     atom:   17    charge:    1.7270    magn:   -0.0053    constr:    0.0000
     atom:   18    charge:    1.7112    magn:    0.0303    constr:    0.0000
     atom:   19    charge:    1.7169    magn:   -0.0079    constr:    0.0000
     atom:   20    charge:    1.7146    magn:    0.0234    constr:    0.0000
     atom:   21    charge:    1.7186    magn:   -0.0089    constr:    0.0000
     atom:   22    charge:    1.7143    magn:    0.0304    constr:    0.0000
     atom:   23    charge:    1.7177    magn:   -0.0067    constr:    0.0000
     atom:   24    charge:    1.7157    magn:    0.0092    constr:    0.0000
     atom:   25    charge:    1.7169    magn:   -0.0078    constr:    0.0000
     atom:   26    charge:    1.7109    magn:    0.0293    constr:    0.0000
     atom:   27    charge:    1.9148    magn:   -0.0004    constr:    0.0000
     atom:   28    charge:    7.8615    magn:    0.1022    constr:    0.0000
     atom:   29    charge:    1.9149    magn:   -0.0003    constr:    0.0000
     atom:   30    charge:    1.7111    magn:    0.0298    constr:    0.0000
     atom:   31    charge:    1.7169    magn:   -0.0078    constr:    0.0000
     atom:   32    charge:    1.7157    magn:    0.0092    constr:    0.0000
     atom:   33    charge:    1.7183    magn:   -0.0042    constr:    0.0000
     atom:   34    charge:    1.7138    magn:    0.0067    constr:    0.0000
     atom:   35    charge:    1.7183    magn:   -0.0041    constr:    0.0000
     atom:   36    charge:    1.7141    magn:    0.0026    constr:    0.0000
     atom:   37    charge:    1.7270    magn:   -0.0051    constr:    0.0000
     atom:   38    charge:    1.7109    magn:    0.0292    constr:    0.0000
     atom:   39    charge:    1.9149    magn:   -0.0005    constr:    0.0000
     atom:   40    charge:    1.7110    magn:    0.0295    constr:    0.0000
     atom:   41    charge:    1.7270    magn:   -0.0052    constr:    0.0000
     atom:   42    charge:    1.7141    magn:    0.0026    constr:    0.0000
     atom:   43    charge:    1.7183    magn:   -0.0042    constr:    0.0000
     atom:   44    charge:    1.7138    magn:    0.0069    constr:    0.0000
     atom:   45    charge:    1.7245    magn:   -0.0031    constr:    0.0000
     atom:   46    charge:    1.7138    magn:    0.0068    constr:    0.0000
     atom:   47    charge:    1.7183    magn:   -0.0042    constr:    0.0000
     atom:   48    charge:    1.7157    magn:    0.0094    constr:    0.0000
     atom:   49    charge:    1.7169    magn:   -0.0078    constr:    0.0000
     atom:   50    charge:    1.7144    magn:    0.0227    constr:    0.0000
     atom:   51    charge:    1.7169    magn:   -0.0078    constr:    0.0000
     atom:   52    charge:    1.7157    magn:    0.0095    constr:    0.0000

     total cpu time spent up to now is     3318.1 secs

     End of self-consistent calculation

 ------ SPIN UP ------------


          k = 0.0000 0.0000 0.0000 ( 87777 PWs)   bands (ev):

   -62.8463 -37.9308 -37.9293 -36.6139 -19.6361 -18.7936 -18.7924 -18.7235
   -18.6778 -18.6775 -18.2426 -16.9377 -16.9376 -16.9372 -16.8012 -16.8006
   -16.5181 -16.0846 -16.0845 -15.9905 -15.8359 -15.8357 -15.0845 -13.8967
   -13.8905 -13.8899 -13.8635 -13.8635 -13.1355 -12.9190 -12.9188 -12.9010
   -12.5076 -12.5074 -12.1143 -11.6473 -11.6472 -11.5226 -11.1412 -11.1410
   -10.1523  -9.3397  -9.3395  -9.2593  -9.1838  -9.1836  -9.0940  -9.0694
    -9.0693  -9.0533  -8.4652  -8.4650  -7.8962  -7.8959  -7.8611  -7.8023
    -7.6787  -7.2555  -7.2552  -6.9628  -6.9620  -6.8987  -6.7057  -6.7004
    -6.6998  -6.6698  -6.5933  -6.5932  -6.5467  -6.4363  -6.4358  -6.3921
    -6.3876  -6.3872  -6.3351  -6.3156  -5.2615  -5.2612  -5.1572  -5.1568
    -4.9471  -4.9469  -4.8358  -4.7478  -4.6209  -4.6094  -4.6091  -4.2452
    -3.9868  -3.9866  -3.7605  -3.7604  -3.6605  -3.6329  -3.5001  -3.5000
    -2.8998  -2.2610  -2.2608  -2.2252  -2.2245  -1.7491  -1.6830  -1.6829
    -0.5415  -0.2409  -0.2406   0.8554   1.0481   1.0799   1.0800   1.7927
     2.0493   2.0495   2.5998   2.8953   2.8955   2.9742   3.3807   3.5314
     3.6037   3.7136   3.7419   3.7817   3.9783   4.0009   4.0018

     occupation numbers 
     1.0000   1.0000   1.0000   1.0000   1.0000   1.0000   1.0000   1.0000
     1.0000   1.0000   1.0000   1.0000   1.0000   1.0000   1.0000   1.0000
     1.0000   1.0000   1.0000   1.0000   1.0000   1.0000   1.0000   1.0000
     1.0000   1.0000   1.0000   1.0000   1.0000   1.0000   1.0000   1.0000
     1.0000   1.0000   1.0000   1.0000   1.0000   1.0000   1.0000   1.0000
     1.0000   1.0000   1.0000   1.0000   1.0000   1.0000   1.0000   1.0000
     1.0000   1.0000   1.0000   1.0000   1.0000   1.0000   1.0000   1.0000
     1.0000   1.0000   1.0000   1.0000   1.0000   1.0000   1.0000   1.0000
     1.0000   1.0000   1.0000   1.0000   1.0000   1.0000   1.0000   1.0000
     1.0000   1.0000   1.0000   1.0000   1.0000   1.0000   1.0000   1.0000
     1.0000   1.0000   1.0000   1.0000   1.0000   1.0000   1.0000   1.0000
     1.0000   1.0000   1.0000   1.0000   1.0000   1.0000   1.0000   1.0000
     1.0000   1.0000   1.0000   1.0000   1.0000   1.0000   1.0000   1.0000
     1.0000   0.5104   0.4896   0.0000   0.0000   0.0000   0.0000   0.0000
     0.0000   0.0000   0.0000   0.0000   0.0000   0.0000   0.0000   0.0000
     0.0000   0.0000   0.0000   0.0000   0.0000   0.0000   0.0000

 ------ SPIN DOWN ----------


          k = 0.0000 0.0000 0.0000 ( 87777 PWs)   bands (ev):

   -62.6490 -37.7698 -37.7649 -36.3441 -19.6142 -18.7721 -18.7706 -18.7033
   -18.6612 -18.6608 -18.2106 -16.9216 -16.9188 -16.9182 -16.7730 -16.7721
   -16.5039 -16.0575 -16.0573 -15.9747 -15.8148 -15.8146 -15.0698 -13.8600
   -13.8599 -13.8595 -13.8500 -13.8487 -13.1387 -12.9084 -12.9081 -12.8854
   -12.4995 -12.4992 -12.0959 -11.6295 -11.6294 -11.5094 -11.1288 -11.1285
   -10.1377  -9.3227  -9.3225  -9.2463  -9.1664  -9.1661  -9.0860  -9.0552
    -9.0552  -9.0441  -8.4585  -8.4582  -7.8847  -7.8844  -7.8541  -7.7500
    -7.6702  -7.2467  -7.2464  -6.8853  -6.8840  -6.8783  -6.6698  -6.6680
    -6.6673  -6.6523  -6.5820  -6.5819  -6.5371  -6.4268  -6.4262  -6.3863
    -6.3809  -6.3806  -6.3269  -6.2383  -5.2533  -5.2528  -5.0728  -5.0712
    -4.9372  -4.9370  -4.8300  -4.7419  -4.5789  -4.5585  -4.5577  -4.2075
    -3.9358  -3.9349  -3.6862  -3.6860  -3.6143  -3.6028  -3.4936  -3.4934
    -2.8665  -2.1937  -2.1927  -2.1595  -2.1584  -1.6672  -1.6672  -1.6546
    -0.5358  -0.0157  -0.0115   0.9318   1.1011   1.1012   1.1254   1.8644
     2.1195   2.1206   2.6073   2.9667   2.9669   3.0155   3.3848   3.5374
     3.6488   3.7168   3.7436   3.7860   3.9990   4.0722   4.0733

     occupation numbers 
     1.0000   1.0000   1.0000   1.0000   1.0000   1.0000   1.0000   1.0000
     1.0000   1.0000   1.0000   1.0000   1.0000   1.0000   1.0000   1.0000
     1.0000   1.0000   1.0000   1.0000   1.0000   1.0000   1.0000   1.0000
     1.0000   1.0000   1.0000   1.0000   1.0000   1.0000   1.0000   1.0000
     1.0000   1.0000   1.0000   1.0000   1.0000   1.0000   1.0000   1.0000
     1.0000   1.0000   1.0000   1.0000   1.0000   1.0000   1.0000   1.0000
     1.0000   1.0000   1.0000   1.0000   1.0000   1.0000   1.0000   1.0000
     1.0000   1.0000   1.0000   1.0000   1.0000   1.0000   1.0000   1.0000
     1.0000   1.0000   1.0000   1.0000   1.0000   1.0000   1.0000   1.0000
     1.0000   1.0000   1.0000   1.0000   1.0000   1.0000   1.0000   1.0000
     1.0000   1.0000   1.0000   1.0000   1.0000   1.0000   1.0000   1.0000
     1.0000   1.0000   1.0000   1.0000   1.0000   1.0000   1.0000   1.0000
     1.0000   1.0000   1.0000   1.0000   1.0000   1.0000   1.0000   1.0000
     1.0000   0.0000   0.0000   0.0000   0.0000   0.0000   0.0000   0.0000
     0.0000   0.0000   0.0000   0.0000   0.0000   0.0000   0.0000   0.0000
     0.0000   0.0000   0.0000   0.0000   0.0000   0.0000   0.0000

     the Fermi energy is    -0.2389 ev

!    total energy              =    -757.32997666 Ry
     Harris-Foulkes estimate   =    -757.32997670 Ry
     estimated scf accuracy    <       0.00000013 Ry

     The total energy is the sum of the following terms:

     one-electron contribution =   -2566.62863071 Ry
     hartree contribution      =    1330.14870025 Ry
     xc contribution           =    -252.66480468 Ry
     ewald contribution        =     731.81508652 Ry
     smearing contrib. (-TS)   =      -0.00032804 Ry

     total magnetization       =     1.00 Bohr mag/cell
     absolute magnetization    =     1.54 Bohr mag/cell

     convergence has been achieved in  30 iterations

     Writing output data file vanadio-sixhollow-distance-5.0.save/

     init_run     :     76.07s CPU     77.38s WALL (       1 calls)
     electrons    :   3183.73s CPU   3239.61s WALL (       1 calls)

     Called by init_run:
     wfcinit      :     45.43s CPU     45.70s WALL (       1 calls)
     wfcinit:atom :      0.05s CPU      0.08s WALL (       2 calls)
     wfcinit:wfcr :     45.02s CPU     45.21s WALL (       2 calls)
     potinit      :     12.46s CPU     12.92s WALL (       1 calls)
     hinit0       :      9.11s CPU      9.14s WALL (       1 calls)

     Called by electrons:
     c_bands      :   2054.96s CPU   2066.28s WALL (      30 calls)
     sum_band     :    658.37s CPU    676.35s WALL (      30 calls)
     v_of_rho     :    231.29s CPU    242.66s WALL (      31 calls)
     v_h          :      2.41s CPU      2.46s WALL (      31 calls)
     v_xc         :    228.88s CPU    240.20s WALL (      31 calls)
     newd         :    232.72s CPU    248.41s WALL (      31 calls)
     mix_rho      :     14.27s CPU     14.50s WALL (      30 calls)

     Called by c_bands:
     init_us_2    :      5.72s CPU      5.76s WALL (     122 calls)
     cegterg      :   2040.45s CPU   2051.67s WALL (      60 calls)

     Called by sum_band:
     sum_band:bec :      0.05s CPU      0.05s WALL (      60 calls)
     addusdens    :    408.10s CPU    424.56s WALL (      30 calls)

     Called by *egterg:
     h_psi        :   1076.32s CPU   1083.86s WALL (     259 calls)
     s_psi        :    359.42s CPU    359.72s WALL (     259 calls)
     g_psi        :      1.14s CPU      1.14s WALL (     197 calls)
     cdiaghg      :     18.98s CPU     19.01s WALL (     257 calls)
     cegterg:over :    250.82s CPU    251.05s WALL (     197 calls)
     cegterg:upda :    159.45s CPU    160.38s WALL (     197 calls)
     cegterg:last :    112.36s CPU    112.44s WALL (      61 calls)

     Called by h_psi:
     h_psi:pot    :   1075.12s CPU   1081.37s WALL (     259 calls)
     h_psi:calbec :    357.30s CPU    357.56s WALL (     259 calls)
     vloc_psi     :    359.05s CPU    364.82s WALL (     259 calls)
     add_vuspsi   :    358.77s CPU    358.99s WALL (     259 calls)

     General routines
     calbec       :    506.86s CPU    507.23s WALL (     319 calls)
     fft          :    132.08s CPU    136.78s WALL (    2319 calls)
     ffts         :      2.41s CPU      2.48s WALL (     122 calls)
     fftw         :    378.74s CPU    384.79s WALL (   44246 calls)
     interpolate  :      5.60s CPU      5.75s WALL (      62 calls)

     Parallel routines
     fft_scatt_xy :     93.11s CPU     94.08s WALL (   46687 calls)
     fft_scatt_yz :    170.14s CPU    177.76s WALL (   46687 calls)

     PWSCF        :  54m21.23s CPU  55m18.78s WALL


   This run was terminated on:  15:11:21   1Sep2022            

=------------------------------------------------------------------------------=
   JOB DONE.
=------------------------------------------------------------------------------=
