
     Program PWSCF v.6.4.1 starts on  1Sep2022 at 20: 8:20 

     This program is part of the open-source Quantum ESPRESSO suite
     for quantum simulation of materials; please cite
         "P. Giannozzi et al., J. Phys.:Condens. Matter 21 395502 (2009);
         "P. Giannozzi et al., J. Phys.:Condens. Matter 29 465901 (2017);
          URL http://www.quantum-espresso.org", 
     in publications or presentations arising from this work. More details at
     http://www.quantum-espresso.org/quote

     Parallel version (MPI), running on     6 processors

     MPI processes distributed on     1 nodes
     R & G space division:  proc/nbgrp/npool/nimage =       6
     Reading input from distance-2.6.in

     Current dimensions of program PWSCF are:
     Max number of different atomic species (ntypx) = 10
     Max number of k-points (npk) =  40000
     Max angular momentum in pseudopotentials (lmaxx) =  3

     IMPORTANT: XC functional enforced from input :
     Exchange-correlation      = RVV10 ( 1  4 13  4 3 0)
     Any further DFT definition will be discarded
     Please, verify this is what you really want

               file H.pbe-rrkjus.UPF: wavefunction(s)  1S renormalized
               file V.pbe-spnl-rrkjus_psl.1.0.0.UPF: wavefunction(s)  3P 3D renormalized

     Subspace diagonalization in iterative solution of the eigenvalue problem:
     a serial algorithm will be used


     Parallelization info
     --------------------
     sticks:   dense  smooth     PW     G-vecs:    dense   smooth      PW
     Min        3051    1746    432               270999   117096   14629
     Max        3053    1747    437               271001   117099   14630
     Sum       18313   10477   2611              1626001   702581   87777



     bravais-lattice index     =            4
     lattice parameter (alat)  =      23.2937  a.u.
     unit-cell volume          =    8879.8548 (a.u.)^3
     number of atoms/cell      =           52
     number of atomic types    =            3
     number of electrons       =       211.00
     number of Kohn-Sham states=          127
     kinetic-energy cutoff     =      70.0000  Ry
     charge density cutoff     =     490.0000  Ry
     convergence threshold     =      1.0E-06
     mixing beta               =       0.7000
     number of iterations used =            8  plain     mixing
     Exchange-correlation      = RVV10 ( 1  4 13  4 3 0)

     celldm(1)=  23.293684  celldm(2)=   0.000000  celldm(3)=   0.811261
     celldm(4)=   0.000000  celldm(5)=   0.000000  celldm(6)=   0.000000

     crystal axes: (cart. coord. in units of alat)
               a(1) = (   1.000000   0.000000   0.000000 )  
               a(2) = (  -0.500000   0.866025   0.000000 )  
               a(3) = (   0.000000   0.000000   0.811261 )  

     reciprocal axes: (cart. coord. in units 2 pi/alat)
               b(1) = (  1.000000  0.577350 -0.000000 )  
               b(2) = (  0.000000  1.154701  0.000000 )  
               b(3) = (  0.000000 -0.000000  1.232649 )  


     PseudoPot. # 1 for H  read from file:
     /home/cristian/Escritorio/Proyecto_Grafeno/pseudopotenciales/H.pbe-rrkjus.UPF
     MD5 check sum: 7cc9d459525c9a0585f487a71c3c9563
     Pseudo is Ultrasoft, Zval =  1.0
     Generated by new atomic code, or converted to UPF format
     Using radial grid of 1061 points,  2 beta functions with: 
                l(1) =   0
                l(2) =   0
     Q(r) pseudized with 0 coefficients 


     PseudoPot. # 2 for C  read from file:
     /home/cristian/Escritorio/Proyecto_Grafeno/pseudopotenciales/C.pbe-n-rrkjus_psl.1.0.0.UPF
     MD5 check sum: 1fdd950c42eb37d8afe3dd2f8d12311e
     Pseudo is Ultrasoft + core correction, Zval =  4.0
     Generated using "atomic" code by A. Dal Corso v.6.3MaX
     Using radial grid of 1073 points,  4 beta functions with: 
                l(1) =   0
                l(2) =   0
                l(3) =   1
                l(4) =   1
     Q(r) pseudized with 0 coefficients 


     PseudoPot. # 3 for V  read from file:
     /home/cristian/Escritorio/Proyecto_Grafeno/pseudopotenciales/V.pbe-spnl-rrkjus_psl.1.0.0.UPF
     MD5 check sum: 79b3eb63147daf0b665d9f1bcc691206
     Pseudo is Ultrasoft + core correction, Zval = 13.0
     Generated using "atomic" code by A. Dal Corso v.6.2.2
     Using radial grid of 1181 points,  6 beta functions with: 
                l(1) =   0
                l(2) =   0
                l(3) =   1
                l(4) =   1
                l(5) =   2
                l(6) =   2
     Q(r) pseudized with 0 coefficients 


     vdW kernel table read from file rVV10_kernel_table
     MD5 check sum: b8e2538accc0c0b3206b45ba4daaba6c

     atomic species   valence    mass     pseudopotential
        H              1.00     1.00794     H ( 1.00)
        C              4.00    12.01070     C ( 1.00)
        V             13.00    50.94150     V ( 1.00)

     Starting magnetic structure 
     atomic species   magnetization
        H            0.500
        C            0.300
        V            0.800

     No symmetry found


                                    s                        frac. trans.

      isym =  1     identity                                     

 cryst.   s( 1) = (     1          0          0      )
                  (     0          1          0      )
                  (     0          0          1      )

 cart.    s( 1) = (  1.0000000  0.0000000  0.0000000 )
                  (  0.0000000  1.0000000  0.0000000 )
                  (  0.0000000  0.0000000  1.0000000 )


     point group C_1 (1)    
     there are  1 classes
     the character table:

       E    
A      1.00

     the symmetry operations in each class and the name of the first element:

     E        1
          identity                                               

   Cartesian axes

     site n.     atom                  positions (alat units)
         1           H   tau(   1) = (   0.2694937   0.4041452   0.2109279  )
         2           H   tau(   2) = (   0.3305063   0.4041452   0.2109279  )
         3           C   tau(   3) = (   0.0000000   0.0000000   0.0000000  )
         4           C   tau(   4) = (   0.0000000   0.1154701   0.0000000  )
         5           C   tau(   5) = (  -0.1000000   0.1732051   0.0000000  )
         6           C   tau(   6) = (  -0.1000000   0.2886751   0.0000000  )
         7           C   tau(   7) = (  -0.2000000   0.3464102   0.0000000  )
         8           C   tau(   8) = (  -0.2000000   0.4618802   0.0000000  )
         9           C   tau(   9) = (  -0.3000000   0.5196152   0.0000000  )
        10           C   tau(  10) = (  -0.3000000   0.6350853   0.0000000  )
        11           C   tau(  11) = (  -0.4000000   0.6928203   0.0000000  )
        12           C   tau(  12) = (  -0.4000000   0.8082904   0.0000000  )
        13           C   tau(  13) = (   0.2000000   0.0000000   0.0000000  )
        14           C   tau(  14) = (   0.2000000   0.1154701   0.0000000  )
        15           C   tau(  15) = (   0.1000000   0.1732051   0.0000000  )
        16           C   tau(  16) = (   0.1000000   0.2886751   0.0000000  )
        17           C   tau(  17) = (   0.0000000   0.3464102   0.0000000  )
        18           C   tau(  18) = (   0.0000000   0.4618802   0.0000000  )
        19           C   tau(  19) = (  -0.1000000   0.5196152   0.0000000  )
        20           C   tau(  20) = (  -0.1000000   0.6350853   0.0000000  )
        21           C   tau(  21) = (  -0.2000000   0.6928203   0.0000000  )
        22           C   tau(  22) = (  -0.2000000   0.8082904   0.0000000  )
        23           C   tau(  23) = (   0.4000000   0.0000000   0.0000000  )
        24           C   tau(  24) = (   0.4000000   0.1154701   0.0000000  )
        25           C   tau(  25) = (   0.3000000   0.1732051   0.0000000  )
        26           C   tau(  26) = (   0.3000000   0.2886751   0.0000000  )
        27           C   tau(  27) = (   0.2000000   0.3464102   0.0000000  )
        28           V   tau(  28) = (   0.2000000   0.4618802   0.0000000  )
        29           C   tau(  29) = (   0.1000000   0.5196152   0.0000000  )
        30           C   tau(  30) = (   0.1000000   0.6350853   0.0000000  )
        31           C   tau(  31) = (   0.0000000   0.6928203   0.0000000  )
        32           C   tau(  32) = (   0.0000000   0.8082904   0.0000000  )
        33           C   tau(  33) = (   0.6000000   0.0000000   0.0000000  )
        34           C   tau(  34) = (   0.6000000   0.1154701   0.0000000  )
        35           C   tau(  35) = (   0.5000000   0.1732051   0.0000000  )
        36           C   tau(  36) = (   0.5000000   0.2886751   0.0000000  )
        37           C   tau(  37) = (   0.4000000   0.3464102   0.0000000  )
        38           C   tau(  38) = (   0.4000000   0.4618802   0.0000000  )
        39           C   tau(  39) = (   0.3000000   0.5196152   0.0000000  )
        40           C   tau(  40) = (   0.3000000   0.6350853   0.0000000  )
        41           C   tau(  41) = (   0.2000000   0.6928203   0.0000000  )
        42           C   tau(  42) = (   0.2000000   0.8082904   0.0000000  )
        43           C   tau(  43) = (   0.8000000   0.0000000   0.0000000  )
        44           C   tau(  44) = (   0.8000000   0.1154701   0.0000000  )
        45           C   tau(  45) = (   0.7000000   0.1732051   0.0000000  )
        46           C   tau(  46) = (   0.7000000   0.2886751   0.0000000  )
        47           C   tau(  47) = (   0.6000000   0.3464102   0.0000000  )
        48           C   tau(  48) = (   0.6000000   0.4618802   0.0000000  )
        49           C   tau(  49) = (   0.5000000   0.5196152   0.0000000  )
        50           C   tau(  50) = (   0.5000000   0.6350853   0.0000000  )
        51           C   tau(  51) = (   0.4000000   0.6928203   0.0000000  )
        52           C   tau(  52) = (   0.4000000   0.8082904   0.0000000  )

   Crystallographic axes

     site n.     atom                  positions (cryst. coord.)
         1           H   tau(   1) = (  0.5028270  0.4666667  0.2600000  )
         2           H   tau(   2) = (  0.5638397  0.4666667  0.2600000  )
         3           C   tau(   3) = (  0.0000000  0.0000000  0.0000000  )
         4           C   tau(   4) = (  0.0666667  0.1333333  0.0000000  )
         5           C   tau(   5) = (  0.0000000  0.2000000  0.0000000  )
         6           C   tau(   6) = (  0.0666667  0.3333333  0.0000000  )
         7           C   tau(   7) = (  0.0000000  0.4000000  0.0000000  )
         8           C   tau(   8) = (  0.0666667  0.5333333  0.0000000  )
         9           C   tau(   9) = (  0.0000000  0.6000000  0.0000000  )
        10           C   tau(  10) = (  0.0666667  0.7333333  0.0000000  )
        11           C   tau(  11) = (  0.0000000  0.8000000  0.0000000  )
        12           C   tau(  12) = (  0.0666667  0.9333333  0.0000000  )
        13           C   tau(  13) = (  0.2000000  0.0000000  0.0000000  )
        14           C   tau(  14) = (  0.2666667  0.1333333  0.0000000  )
        15           C   tau(  15) = (  0.2000000  0.2000000  0.0000000  )
        16           C   tau(  16) = (  0.2666667  0.3333333  0.0000000  )
        17           C   tau(  17) = (  0.2000000  0.4000000  0.0000000  )
        18           C   tau(  18) = (  0.2666667  0.5333333  0.0000000  )
        19           C   tau(  19) = (  0.2000000  0.6000000  0.0000000  )
        20           C   tau(  20) = (  0.2666667  0.7333333  0.0000000  )
        21           C   tau(  21) = (  0.2000000  0.8000000  0.0000000  )
        22           C   tau(  22) = (  0.2666667  0.9333333  0.0000000  )
        23           C   tau(  23) = (  0.4000000  0.0000000  0.0000000  )
        24           C   tau(  24) = (  0.4666667  0.1333333  0.0000000  )
        25           C   tau(  25) = (  0.4000000  0.2000000  0.0000000  )
        26           C   tau(  26) = (  0.4666667  0.3333333  0.0000000  )
        27           C   tau(  27) = (  0.4000000  0.4000000  0.0000000  )
        28           V   tau(  28) = (  0.4666667  0.5333333  0.0000000  )
        29           C   tau(  29) = (  0.4000000  0.6000000  0.0000000  )
        30           C   tau(  30) = (  0.4666667  0.7333333  0.0000000  )
        31           C   tau(  31) = (  0.4000000  0.8000000  0.0000000  )
        32           C   tau(  32) = (  0.4666667  0.9333333  0.0000000  )
        33           C   tau(  33) = (  0.6000000  0.0000000  0.0000000  )
        34           C   tau(  34) = (  0.6666667  0.1333333  0.0000000  )
        35           C   tau(  35) = (  0.6000000  0.2000000  0.0000000  )
        36           C   tau(  36) = (  0.6666667  0.3333333  0.0000000  )
        37           C   tau(  37) = (  0.6000000  0.4000000  0.0000000  )
        38           C   tau(  38) = (  0.6666667  0.5333333  0.0000000  )
        39           C   tau(  39) = (  0.6000000  0.6000000  0.0000000  )
        40           C   tau(  40) = (  0.6666667  0.7333333  0.0000000  )
        41           C   tau(  41) = (  0.6000000  0.8000000  0.0000000  )
        42           C   tau(  42) = (  0.6666667  0.9333333  0.0000000  )
        43           C   tau(  43) = (  0.8000000  0.0000000  0.0000000  )
        44           C   tau(  44) = (  0.8666667  0.1333333  0.0000000  )
        45           C   tau(  45) = (  0.8000000  0.2000000  0.0000000  )
        46           C   tau(  46) = (  0.8666667  0.3333333  0.0000000  )
        47           C   tau(  47) = (  0.8000000  0.4000000  0.0000000  )
        48           C   tau(  48) = (  0.8666667  0.5333333  0.0000000  )
        49           C   tau(  49) = (  0.8000000  0.6000000  0.0000000  )
        50           C   tau(  50) = (  0.8666667  0.7333333  0.0000000  )
        51           C   tau(  51) = (  0.8000000  0.8000000  0.0000000  )
        52           C   tau(  52) = (  0.8666667  0.9333333  0.0000000  )

     number of k points=     1  Marzari-Vanderbilt smearing, width (Ry)=  0.0010
                       cart. coord. in units 2pi/alat
        k(    1) = (   0.0000000   0.0000000   0.0000000), wk =   1.0000000

                       cryst. coord.
        k(    1) = (   0.0000000   0.0000000   0.0000000), wk =   1.0000000

     Dense  grid:  1626001 G-vectors     FFT dimensions: ( 180, 180, 135)

     Smooth grid:   702581 G-vectors     FFT dimensions: ( 125, 125, 108)

     Dynamical RAM for                 wfc:      28.36 MB

     Dynamical RAM for     wfc (w. buffer):      85.09 MB

     Dynamical RAM for           str. fact:      12.41 MB

     Dynamical RAM for           local pot:       0.00 MB

     Dynamical RAM for          nlocal pot:      92.46 MB

     Dynamical RAM for                qrad:      19.73 MB

     Dynamical RAM for          rho,v,vnew:      58.92 MB

     Dynamical RAM for               rhoin:      19.64 MB

     Dynamical RAM for            rho*nmix:     132.32 MB

     Dynamical RAM for           G-vectors:      16.40 MB

     Dynamical RAM for          h,s,v(r/c):      11.81 MB

     Dynamical RAM for          <psi|beta>:       0.80 MB

     Dynamical RAM for                 psi:     113.46 MB

     Dynamical RAM for                hpsi:     113.46 MB

     Dynamical RAM for                spsi:     113.46 MB

     Dynamical RAM for      wfcinit/wfcrot:      93.90 MB

     Dynamical RAM for           addusdens:     975.89 MB

     Estimated static dynamical RAM per process >     487.63 MB

     Estimated max dynamical RAM per process >       1.43 GB

     Estimated total dynamical RAM >       8.58 GB
     Generating pointlists ...
     new r_m :   0.0252 (alat units)  0.5862 (a.u.) for type    1
     new r_m :   0.0476 (alat units)  1.1095 (a.u.) for type    2
     new r_m :   0.0476 (alat units)  1.1095 (a.u.) for type    3

     Check: negative core charge=   -0.000002

     Initial potential from superposition of free atoms

     starting charge  210.80465, renormalised to  211.00000

     negative rho (up, down):  1.268E-04 1.654E-02


---------------------------------------------------------------------------------
Carrying out rVV10 run using the following parameters:
Nqs =      20    Nr_points =    1024   r_max =   100.000
b_value =  6.30000    beta =  0.00901
     q_mesh =  0.00010000  0.00030000  0.00058939  0.00100810
               0.00161396  0.00249058  0.00375900  0.00559430
               0.00824984  0.01209221  0.01765183  0.02569619
               0.03733578  0.05417739  0.07854596  0.11380545
               0.16482331  0.23864234  0.34545298  0.50000000

Gradients computed in Reciprocal space

---------------------------------------------------------------------------------


     Starting wfcs are  208 randomized atomic wfcs

     total cpu time spent up to now is       83.5 secs

     Self-consistent Calculation

     iteration #  1     ecut=    70.00 Ry     beta= 0.70
     Davidson diagonalization with overlap
     ethr =  1.00E-02,  avg # of iterations =  3.0

     negative rho (up, down):  2.615E-04 1.368E-02

     total cpu time spent up to now is      234.6 secs

     total energy              =    -753.00001699 Ry
     Harris-Foulkes estimate   =    -756.95196660 Ry
     estimated scf accuracy    <      11.79595385 Ry

     total magnetization       =     5.00 Bohr mag/cell
     absolute magnetization    =     6.05 Bohr mag/cell

     iteration #  2     ecut=    70.00 Ry     beta= 0.70
     Davidson diagonalization with overlap
     ethr =  5.59E-03,  avg # of iterations =  7.0

     negative rho (up, down):  3.983E-03 1.855E-01

     total cpu time spent up to now is      376.4 secs

     total energy              =    -746.61713989 Ry
     Harris-Foulkes estimate   =    -767.75672005 Ry
     estimated scf accuracy    <      72.99957472 Ry

     total magnetization       =     3.00 Bohr mag/cell
     absolute magnetization    =     3.35 Bohr mag/cell

     iteration #  3     ecut=    70.00 Ry     beta= 0.70
     Davidson diagonalization with overlap
     ethr =  5.59E-03,  avg # of iterations =  5.0

     negative rho (up, down):  1.418E-03 2.416E-02

     total cpu time spent up to now is      572.9 secs

     total energy              =    -755.71243301 Ry
     Harris-Foulkes estimate   =    -758.12550877 Ry
     estimated scf accuracy    <      10.98761056 Ry

     total magnetization       =     5.00 Bohr mag/cell
     absolute magnetization    =     5.81 Bohr mag/cell

     iteration #  4     ecut=    70.00 Ry     beta= 0.70
     Davidson diagonalization with overlap
     ethr =  5.21E-03,  avg # of iterations =  2.5

     negative rho (up, down):  5.063E-02 2.309E-02

     total cpu time spent up to now is      680.9 secs

     total energy              =    -756.97742001 Ry
     Harris-Foulkes estimate   =    -757.55994092 Ry
     estimated scf accuracy    <       1.71154402 Ry

     total magnetization       =     1.00 Bohr mag/cell
     absolute magnetization    =     1.69 Bohr mag/cell

     iteration #  5     ecut=    70.00 Ry     beta= 0.70
     Davidson diagonalization with overlap
     ethr =  8.11E-04,  avg # of iterations =  6.5

     negative rho (up, down):  5.648E-02 1.894E-02

     total cpu time spent up to now is      809.8 secs

     total energy              =    -757.20267048 Ry
     Harris-Foulkes estimate   =    -757.33888568 Ry
     estimated scf accuracy    <       0.44946172 Ry

     total magnetization       =     1.00 Bohr mag/cell
     absolute magnetization    =     1.53 Bohr mag/cell

     iteration #  6     ecut=    70.00 Ry     beta= 0.70
     Davidson diagonalization with overlap
     ethr =  2.13E-04,  avg # of iterations =  3.5

     negative rho (up, down):  2.883E-02 1.957E-02

     total cpu time spent up to now is      930.0 secs

     total energy              =    -757.29860495 Ry
     Harris-Foulkes estimate   =    -757.31288032 Ry
     estimated scf accuracy    <       0.16052023 Ry

     total magnetization       =     1.00 Bohr mag/cell
     absolute magnetization    =     1.44 Bohr mag/cell

     iteration #  7     ecut=    70.00 Ry     beta= 0.70
     Davidson diagonalization with overlap
     ethr =  7.61E-05,  avg # of iterations =  3.0

     negative rho (up, down):  3.258E-02 1.515E-02

     total cpu time spent up to now is     1044.3 secs

     total energy              =    -757.32051707 Ry
     Harris-Foulkes estimate   =    -757.32657494 Ry
     estimated scf accuracy    <       0.03874344 Ry

     total magnetization       =     1.00 Bohr mag/cell
     absolute magnetization    =     1.36 Bohr mag/cell

     iteration #  8     ecut=    70.00 Ry     beta= 0.70
     Davidson diagonalization with overlap
     ethr =  1.84E-05,  avg # of iterations =  5.5

     negative rho (up, down):  3.189E-02 2.354E-02

     total cpu time spent up to now is     1174.3 secs

     total energy              =    -757.32729315 Ry
     Harris-Foulkes estimate   =    -757.33294435 Ry
     estimated scf accuracy    <       0.03325077 Ry

     total magnetization       =     1.00 Bohr mag/cell
     absolute magnetization    =     1.38 Bohr mag/cell

     iteration #  9     ecut=    70.00 Ry     beta= 0.70
     Davidson diagonalization with overlap
     ethr =  1.58E-05,  avg # of iterations =  5.0

     negative rho (up, down):  3.527E-02 2.080E-02

     total cpu time spent up to now is     1307.8 secs

     total energy              =    -757.33033385 Ry
     Harris-Foulkes estimate   =    -757.33192872 Ry
     estimated scf accuracy    <       0.00837739 Ry

     total magnetization       =     1.00 Bohr mag/cell
     absolute magnetization    =     1.38 Bohr mag/cell

     iteration # 10     ecut=    70.00 Ry     beta= 0.70
     Davidson diagonalization with overlap
     ethr =  3.97E-06,  avg # of iterations =  3.0

     negative rho (up, down):  3.718E-02 1.658E-02

     total cpu time spent up to now is     1435.9 secs

     total energy              =    -757.33058533 Ry
     Harris-Foulkes estimate   =    -757.33301377 Ry
     estimated scf accuracy    <       0.02079277 Ry

     total magnetization       =     1.00 Bohr mag/cell
     absolute magnetization    =     1.42 Bohr mag/cell

     iteration # 11     ecut=    70.00 Ry     beta= 0.70
     Davidson diagonalization with overlap
     ethr =  3.97E-06,  avg # of iterations =  2.0

     negative rho (up, down):  3.534E-02 1.490E-02

     total cpu time spent up to now is     1542.2 secs

     total energy              =    -757.33208611 Ry
     Harris-Foulkes estimate   =    -757.33184345 Ry
     estimated scf accuracy    <       0.00491402 Ry

     total magnetization       =     1.00 Bohr mag/cell
     absolute magnetization    =     1.42 Bohr mag/cell

     iteration # 12     ecut=    70.00 Ry     beta= 0.70
     Davidson diagonalization with overlap
     ethr =  2.33E-06,  avg # of iterations =  3.0

     negative rho (up, down):  3.357E-02 1.008E-02

     total cpu time spent up to now is     1652.6 secs

     total energy              =    -757.33345686 Ry
     Harris-Foulkes estimate   =    -757.33243773 Ry
     estimated scf accuracy    <       0.00025319 Ry

     total magnetization       =     1.00 Bohr mag/cell
     absolute magnetization    =     1.43 Bohr mag/cell

     iteration # 13     ecut=    70.00 Ry     beta= 0.70
     Davidson diagonalization with overlap
     ethr =  1.20E-07,  avg # of iterations =  5.0

     negative rho (up, down):  3.391E-02 3.440E-03

     total cpu time spent up to now is     1792.5 secs

     total energy              =    -757.33358715 Ry
     Harris-Foulkes estimate   =    -757.33354801 Ry
     estimated scf accuracy    <       0.00019709 Ry

     total magnetization       =     1.00 Bohr mag/cell
     absolute magnetization    =     1.46 Bohr mag/cell

     iteration # 14     ecut=    70.00 Ry     beta= 0.70
     Davidson diagonalization with overlap
     ethr =  9.34E-08,  avg # of iterations =  2.0

     negative rho (up, down):  3.416E-02 2.890E-03

     total cpu time spent up to now is     1901.7 secs

     total energy              =    -757.33362666 Ry
     Harris-Foulkes estimate   =    -757.33361639 Ry
     estimated scf accuracy    <       0.00002153 Ry

     total magnetization       =     1.00 Bohr mag/cell
     absolute magnetization    =     1.47 Bohr mag/cell

     iteration # 15     ecut=    70.00 Ry     beta= 0.70
     Davidson diagonalization with overlap
     ethr =  1.02E-08,  avg # of iterations =  4.0

     negative rho (up, down):  3.424E-02 3.441E-03

     total cpu time spent up to now is     2032.7 secs

     total energy              =    -757.33363291 Ry
     Harris-Foulkes estimate   =    -757.33363521 Ry
     estimated scf accuracy    <       0.00002495 Ry

     total magnetization       =     1.00 Bohr mag/cell
     absolute magnetization    =     1.49 Bohr mag/cell

     iteration # 16     ecut=    70.00 Ry     beta= 0.70
     Davidson diagonalization with overlap
     ethr =  1.02E-08,  avg # of iterations =  2.0

     negative rho (up, down):  3.429E-02 3.398E-03

     total cpu time spent up to now is     2152.9 secs

     total energy              =    -757.33363641 Ry
     Harris-Foulkes estimate   =    -757.33363660 Ry
     estimated scf accuracy    <       0.00001958 Ry

     total magnetization       =     1.00 Bohr mag/cell
     absolute magnetization    =     1.50 Bohr mag/cell

     iteration # 17     ecut=    70.00 Ry     beta= 0.70
     Davidson diagonalization with overlap
     ethr =  9.28E-09,  avg # of iterations =  1.0

     negative rho (up, down):  3.428E-02 1.954E-03

     total cpu time spent up to now is     2269.2 secs

     total energy              =    -757.33363889 Ry
     Harris-Foulkes estimate   =    -757.33363720 Ry
     estimated scf accuracy    <       0.00000669 Ry

     total magnetization       =     1.00 Bohr mag/cell
     absolute magnetization    =     1.50 Bohr mag/cell

     iteration # 18     ecut=    70.00 Ry     beta= 0.70
     Davidson diagonalization with overlap
     ethr =  3.17E-09,  avg # of iterations =  3.0

     negative rho (up, down):  3.432E-02 2.641E-03

     total cpu time spent up to now is     2378.1 secs

     total energy              =    -757.33363819 Ry
     Harris-Foulkes estimate   =    -757.33363970 Ry
     estimated scf accuracy    <       0.00000365 Ry

     total magnetization       =     1.00 Bohr mag/cell
     absolute magnetization    =     1.51 Bohr mag/cell

     iteration # 19     ecut=    70.00 Ry     beta= 0.70
     Davidson diagonalization with overlap
     ethr =  1.73E-09,  avg # of iterations =  2.5

     negative rho (up, down):  3.432E-02 2.230E-03

     total cpu time spent up to now is     2500.7 secs

     total energy              =    -757.33363897 Ry
     Harris-Foulkes estimate   =    -757.33363878 Ry
     estimated scf accuracy    <       0.00000512 Ry

     total magnetization       =     1.00 Bohr mag/cell
     absolute magnetization    =     1.52 Bohr mag/cell

     iteration # 20     ecut=    70.00 Ry     beta= 0.70
     Davidson diagonalization with overlap
     ethr =  1.73E-09,  avg # of iterations =  3.0

     negative rho (up, down):  3.428E-02 2.188E-03

     total cpu time spent up to now is     2626.8 secs

     total energy              =    -757.33364004 Ry
     Harris-Foulkes estimate   =    -757.33363982 Ry
     estimated scf accuracy    <       0.00001064 Ry

     total magnetization       =     1.00 Bohr mag/cell
     absolute magnetization    =     1.52 Bohr mag/cell

     iteration # 21     ecut=    70.00 Ry     beta= 0.70
     Davidson diagonalization with overlap
     ethr =  1.73E-09,  avg # of iterations =  2.5

     negative rho (up, down):  3.430E-02 1.923E-03

     total cpu time spent up to now is     2737.3 secs

     total energy              =    -757.33364015 Ry
     Harris-Foulkes estimate   =    -757.33364069 Ry
     estimated scf accuracy    <       0.00000677 Ry

     total magnetization       =     1.00 Bohr mag/cell
     absolute magnetization    =     1.52 Bohr mag/cell

     iteration # 22     ecut=    70.00 Ry     beta= 0.70
     Davidson diagonalization with overlap
     ethr =  1.73E-09,  avg # of iterations =  2.0

     negative rho (up, down):  3.428E-02 1.888E-03

     total cpu time spent up to now is     2843.9 secs

     total energy              =    -757.33364096 Ry
     Harris-Foulkes estimate   =    -757.33364046 Ry
     estimated scf accuracy    <       0.00000430 Ry

     total magnetization       =     1.00 Bohr mag/cell
     absolute magnetization    =     1.53 Bohr mag/cell

     iteration # 23     ecut=    70.00 Ry     beta= 0.70
     Davidson diagonalization with overlap
     ethr =  1.73E-09,  avg # of iterations =  1.0

     negative rho (up, down):  3.429E-02 1.834E-03

     total cpu time spent up to now is     2952.3 secs

     total energy              =    -757.33364101 Ry
     Harris-Foulkes estimate   =    -757.33364106 Ry
     estimated scf accuracy    <       0.00000218 Ry

     total magnetization       =     1.00 Bohr mag/cell
     absolute magnetization    =     1.53 Bohr mag/cell

     iteration # 24     ecut=    70.00 Ry     beta= 0.70
     Davidson diagonalization with overlap
     ethr =  1.03E-09,  avg # of iterations =  1.0

     negative rho (up, down):  3.429E-02 1.967E-03

     total cpu time spent up to now is     3065.4 secs

     total energy              =    -757.33364088 Ry
     Harris-Foulkes estimate   =    -757.33364106 Ry
     estimated scf accuracy    <       0.00000231 Ry

     total magnetization       =     1.00 Bohr mag/cell
     absolute magnetization    =     1.53 Bohr mag/cell

     iteration # 25     ecut=    70.00 Ry     beta= 0.70
     Davidson diagonalization with overlap
     ethr =  1.03E-09,  avg # of iterations =  6.0

     negative rho (up, down):  3.428E-02 1.868E-03

     Magnetic moment per site:
     atom:    1    charge:    0.2131    magn:   -0.0000    constr:    0.0000
     atom:    2    charge:    0.2094    magn:    0.0000    constr:    0.0000
     atom:    3    charge:    1.7176    magn:   -0.0067    constr:    0.0000
     atom:    4    charge:    1.7157    magn:    0.0091    constr:    0.0000
     atom:    5    charge:    1.7182    magn:   -0.0041    constr:    0.0000
     atom:    6    charge:    1.7141    magn:    0.0025    constr:    0.0000
     atom:    7    charge:    1.7183    magn:   -0.0041    constr:    0.0000
     atom:    8    charge:    1.7157    magn:    0.0093    constr:    0.0000
     atom:    9    charge:    1.7177    magn:   -0.0068    constr:    0.0000
     atom:   10    charge:    1.7145    magn:    0.0310    constr:    0.0000
     atom:   11    charge:    1.7186    magn:   -0.0089    constr:    0.0000
     atom:   12    charge:    1.7142    magn:    0.0301    constr:    0.0000
     atom:   13    charge:    1.7186    magn:   -0.0089    constr:    0.0000
     atom:   14    charge:    1.7146    magn:    0.0231    constr:    0.0000
     atom:   15    charge:    1.7169    magn:   -0.0077    constr:    0.0000
     atom:   16    charge:    1.7109    magn:    0.0288    constr:    0.0000
     atom:   17    charge:    1.7270    magn:   -0.0050    constr:    0.0000
     atom:   18    charge:    1.7109    magn:    0.0288    constr:    0.0000
     atom:   19    charge:    1.7170    magn:   -0.0077    constr:    0.0000
     atom:   20    charge:    1.7143    magn:    0.0226    constr:    0.0000
     atom:   21    charge:    1.7186    magn:   -0.0089    constr:    0.0000
     atom:   22    charge:    1.7146    magn:    0.0317    constr:    0.0000
     atom:   23    charge:    1.7176    magn:   -0.0068    constr:    0.0000
     atom:   24    charge:    1.7157    magn:    0.0095    constr:    0.0000
     atom:   25    charge:    1.7168    magn:   -0.0079    constr:    0.0000
     atom:   26    charge:    1.7115    magn:    0.0303    constr:    0.0000
     atom:   27    charge:    1.9148    magn:   -0.0002    constr:    0.0000
     atom:   28    charge:    7.8609    magn:    0.1021    constr:    0.0000
     atom:   29    charge:    1.9148    magn:   -0.0005    constr:    0.0000
     atom:   30    charge:    1.7109    magn:    0.0295    constr:    0.0000
     atom:   31    charge:    1.7170    magn:   -0.0078    constr:    0.0000
     atom:   32    charge:    1.7158    magn:    0.0095    constr:    0.0000
     atom:   33    charge:    1.7183    magn:   -0.0042    constr:    0.0000
     atom:   34    charge:    1.7139    magn:    0.0069    constr:    0.0000
     atom:   35    charge:    1.7182    magn:   -0.0042    constr:    0.0000
     atom:   36    charge:    1.7141    magn:    0.0026    constr:    0.0000
     atom:   37    charge:    1.7267    magn:   -0.0053    constr:    0.0000
     atom:   38    charge:    1.7117    magn:    0.0303    constr:    0.0000
     atom:   39    charge:    1.9150    magn:   -0.0002    constr:    0.0000
     atom:   40    charge:    1.7108    magn:    0.0297    constr:    0.0000
     atom:   41    charge:    1.7270    magn:   -0.0052    constr:    0.0000
     atom:   42    charge:    1.7141    magn:    0.0026    constr:    0.0000
     atom:   43    charge:    1.7183    magn:   -0.0041    constr:    0.0000
     atom:   44    charge:    1.7138    magn:    0.0066    constr:    0.0000
     atom:   45    charge:    1.7244    magn:   -0.0030    constr:    0.0000
     atom:   46    charge:    1.7139    magn:    0.0068    constr:    0.0000
     atom:   47    charge:    1.7182    magn:   -0.0042    constr:    0.0000
     atom:   48    charge:    1.7157    magn:    0.0093    constr:    0.0000
     atom:   49    charge:    1.7168    magn:   -0.0080    constr:    0.0000
     atom:   50    charge:    1.7146    magn:    0.0236    constr:    0.0000
     atom:   51    charge:    1.7169    magn:   -0.0079    constr:    0.0000
     atom:   52    charge:    1.7156    magn:    0.0091    constr:    0.0000

     total cpu time spent up to now is     3178.0 secs

     End of self-consistent calculation

 ------ SPIN UP ------------


          k = 0.0000 0.0000 0.0000 ( 87777 PWs)   bands (ev):

   -62.8346 -37.9220 -37.9161 -36.6006 -19.6355 -18.7931 -18.7902 -18.7241
   -18.6789 -18.6767 -18.2400 -16.9383 -16.9374 -16.9353 -16.8007 -16.7983
   -16.5178 -16.0835 -16.0830 -15.9909 -15.8347 -15.8332 -15.0825 -13.8950
   -13.8891 -13.8851 -13.8639 -13.8631 -13.1354 -12.9185 -12.9177 -12.9003
   -12.5073 -12.5058 -12.1130 -11.6462 -11.6455 -11.5217 -11.1402 -11.1390
   -10.1512  -9.3376  -9.3370  -9.2557  -9.1825  -9.1823  -9.0934  -9.0693
    -9.0692  -9.0537  -8.4650  -8.4639  -7.8952  -7.8944  -7.8652  -7.8423
    -7.6770  -7.3603  -7.2548  -7.2491  -6.9605  -6.8993  -6.8513  -6.7037
    -6.7003  -6.6477  -6.5922  -6.5913  -6.5434  -6.4357  -6.4346  -6.3919
    -6.3878  -6.3867  -6.3354  -6.1756  -5.2609  -5.2605  -5.1541  -5.1292
    -4.9471  -4.9455  -4.8343  -4.7475  -4.6214  -4.6091  -4.6018  -4.2324
    -3.9874  -3.9858  -3.7610  -3.7535  -3.6602  -3.6213  -3.5000  -3.4998
    -2.8865  -2.2634  -2.2591  -2.2164  -2.2121  -1.7496  -1.6846  -1.6830
    -0.5470  -0.2385  -0.2379   0.9552   1.0469   1.0798   1.0888   1.7897
     2.0484   2.0500   2.5469   2.8945   2.8954   2.9726   3.3650   3.5324
     3.7057   3.7361   3.7448   3.7831   3.9629   4.0002   4.0061

     occupation numbers 
     1.0000   1.0000   1.0000   1.0000   1.0000   1.0000   1.0000   1.0000
     1.0000   1.0000   1.0000   1.0000   1.0000   1.0000   1.0000   1.0000
     1.0000   1.0000   1.0000   1.0000   1.0000   1.0000   1.0000   1.0000
     1.0000   1.0000   1.0000   1.0000   1.0000   1.0000   1.0000   1.0000
     1.0000   1.0000   1.0000   1.0000   1.0000   1.0000   1.0000   1.0000
     1.0000   1.0000   1.0000   1.0000   1.0000   1.0000   1.0000   1.0000
     1.0000   1.0000   1.0000   1.0000   1.0000   1.0000   1.0000   1.0000
     1.0000   1.0000   1.0000   1.0000   1.0000   1.0000   1.0000   1.0000
     1.0000   1.0000   1.0000   1.0000   1.0000   1.0000   1.0000   1.0000
     1.0000   1.0000   1.0000   1.0000   1.0000   1.0000   1.0000   1.0000
     1.0000   1.0000   1.0000   1.0000   1.0000   1.0000   1.0000   1.0000
     1.0000   1.0000   1.0000   1.0000   1.0000   1.0000   1.0000   1.0000
     1.0000   1.0000   1.0000   1.0000   1.0000   1.0000   1.0000   1.0000
     1.0000   0.5170   0.4830   0.0000   0.0000   0.0000   0.0000   0.0000
     0.0000   0.0000   0.0000   0.0000   0.0000   0.0000   0.0000   0.0000
     0.0000   0.0000   0.0000   0.0000   0.0000   0.0000   0.0000

 ------ SPIN DOWN ----------


          k = 0.0000 0.0000 0.0000 ( 87777 PWs)   bands (ev):

   -62.6374 -37.7622 -37.7506 -36.3308 -19.6137 -18.7718 -18.7685 -18.7039
   -18.6623 -18.6600 -18.2080 -16.9213 -16.9195 -16.9165 -16.7725 -16.7699
   -16.5037 -16.0566 -16.0556 -15.9752 -15.8137 -15.8122 -15.0677 -13.8604
   -13.8594 -13.8579 -13.8487 -13.8439 -13.1385 -12.9079 -12.9070 -12.8846
   -12.4992 -12.4976 -12.0946 -11.6283 -11.6276 -11.5085 -11.1278 -11.1264
   -10.1366  -9.3207  -9.3199  -9.2428  -9.1651  -9.1648  -9.0852  -9.0552
    -9.0551  -9.0445  -8.4583  -8.4571  -7.8837  -7.8828  -7.8553  -7.7950
    -7.6686  -7.3323  -7.2460  -7.2383  -6.8826  -6.8777  -6.7904  -6.6678
    -6.6578  -6.6161  -6.5809  -6.5800  -6.5338  -6.4263  -6.4252  -6.3862
    -6.3809  -6.3801  -6.3272  -6.1039  -5.2526  -5.2521  -5.0681  -5.0440
    -4.9372  -4.9356  -4.8286  -4.7415  -4.5795  -4.5578  -4.5515  -4.1949
    -3.9365  -3.9339  -3.6866  -3.6792  -3.6143  -3.5910  -3.4934  -3.4932
    -2.8518  -2.1965  -2.1905  -2.1508  -2.1457  -1.6690  -1.6674  -1.6553
    -0.5414  -0.0143  -0.0083   1.0244   1.1009   1.1165   1.1244   1.8599
     2.1188   2.1203   2.5527   2.9659   2.9668   3.0144   3.3765   3.5459
     3.7145   3.7455   3.7622   3.7964   3.9811   4.0676   4.0726

     occupation numbers 
     1.0000   1.0000   1.0000   1.0000   1.0000   1.0000   1.0000   1.0000
     1.0000   1.0000   1.0000   1.0000   1.0000   1.0000   1.0000   1.0000
     1.0000   1.0000   1.0000   1.0000   1.0000   1.0000   1.0000   1.0000
     1.0000   1.0000   1.0000   1.0000   1.0000   1.0000   1.0000   1.0000
     1.0000   1.0000   1.0000   1.0000   1.0000   1.0000   1.0000   1.0000
     1.0000   1.0000   1.0000   1.0000   1.0000   1.0000   1.0000   1.0000
     1.0000   1.0000   1.0000   1.0000   1.0000   1.0000   1.0000   1.0000
     1.0000   1.0000   1.0000   1.0000   1.0000   1.0000   1.0000   1.0000
     1.0000   1.0000   1.0000   1.0000   1.0000   1.0000   1.0000   1.0000
     1.0000   1.0000   1.0000   1.0000   1.0000   1.0000   1.0000   1.0000
     1.0000   1.0000   1.0000   1.0000   1.0000   1.0000   1.0000   1.0000
     1.0000   1.0000   1.0000   1.0000   1.0000   1.0000   1.0000   1.0000
     1.0000   1.0000   1.0000   1.0000   1.0000   1.0000   1.0000   1.0000
     1.0000   0.0000   0.0000   0.0000   0.0000   0.0000   0.0000   0.0000
     0.0000   0.0000   0.0000   0.0000   0.0000   0.0000   0.0000   0.0000
     0.0000   0.0000   0.0000   0.0000   0.0000   0.0000   0.0000

     the Fermi energy is    -0.2363 ev

!    total energy              =    -757.33364091 Ry
     Harris-Foulkes estimate   =    -757.33364108 Ry
     estimated scf accuracy    <       0.00000044 Ry

     The total energy is the sum of the following terms:

     one-electron contribution =   -2593.29725850 Ry
     hartree contribution      =    1343.47911398 Ry
     xc contribution           =    -252.68155346 Ry
     ewald contribution        =     745.16638487 Ry
     smearing contrib. (-TS)   =      -0.00032779 Ry

     total magnetization       =     1.00 Bohr mag/cell
     absolute magnetization    =     1.54 Bohr mag/cell

     convergence has been achieved in  25 iterations

     Writing output data file vanadio-sixhollow-distance-2.6.save/

     init_run     :     80.48s CPU     81.86s WALL (       1 calls)
     electrons    :   3046.16s CPU   3094.77s WALL (       1 calls)

     Called by init_run:
     wfcinit      :     49.33s CPU     49.59s WALL (       1 calls)
     wfcinit:atom :      0.09s CPU      0.10s WALL (       2 calls)
     wfcinit:wfcr :     48.79s CPU     48.99s WALL (       2 calls)
     potinit      :     13.19s CPU     13.65s WALL (       1 calls)
     hinit0       :      7.66s CPU      7.71s WALL (       1 calls)

     Called by electrons:
     c_bands      :   1978.22s CPU   1989.76s WALL (      25 calls)
     sum_band     :    615.04s CPU    630.29s WALL (      25 calls)
     v_of_rho     :    233.09s CPU    242.75s WALL (      26 calls)
     v_h          :      2.26s CPU      2.33s WALL (      26 calls)
     v_xc         :    230.83s CPU    240.42s WALL (      26 calls)
     newd         :    216.60s CPU    229.30s WALL (      26 calls)
     mix_rho      :     13.34s CPU     13.56s WALL (      25 calls)

     Called by c_bands:
     init_us_2    :      5.03s CPU      5.08s WALL (     102 calls)
     cegterg      :   1959.12s CPU   1970.54s WALL (      50 calls)

     Called by sum_band:
     sum_band:bec :      0.04s CPU      0.05s WALL (      50 calls)
     addusdens    :    324.66s CPU    338.12s WALL (      25 calls)

     Called by *egterg:
     h_psi        :   1064.19s CPU   1072.14s WALL (     220 calls)
     s_psi        :    319.02s CPU    319.61s WALL (     220 calls)
     g_psi        :      1.10s CPU      1.11s WALL (     168 calls)
     cdiaghg      :     22.49s CPU     22.54s WALL (     218 calls)
     cegterg:over :    246.67s CPU    247.09s WALL (     168 calls)
     cegterg:upda :    138.61s CPU    139.31s WALL (     168 calls)
     cegterg:last :    100.68s CPU    100.86s WALL (      51 calls)

     Called by h_psi:
     h_psi:pot    :   1062.99s CPU   1069.85s WALL (     220 calls)
     h_psi:calbec :    329.26s CPU    329.70s WALL (     220 calls)
     vloc_psi     :    416.09s CPU    422.08s WALL (     220 calls)
     add_vuspsi   :    317.63s CPU    318.06s WALL (     220 calls)

     General routines
     calbec       :    466.39s CPU    467.10s WALL (     270 calls)
     fft          :    178.01s CPU    181.96s WALL (    1944 calls)
     ffts         :      2.50s CPU      2.58s WALL (     102 calls)
     fftw         :    453.97s CPU    460.47s WALL (   36708 calls)
     interpolate  :      5.34s CPU      5.49s WALL (      52 calls)

     Parallel routines
     fft_scatt_xy :     89.47s CPU     90.41s WALL (   38754 calls)
     fft_scatt_yz :    301.52s CPU    309.33s WALL (   38754 calls)

     PWSCF        :  52m 8.72s CPU  52m58.92s WALL


   This run was terminated on:  21: 1:18   1Sep2022            

=------------------------------------------------------------------------------=
   JOB DONE.
=------------------------------------------------------------------------------=
