
     Program PWSCF v.6.4.1 starts on 24Jul2022 at 12: 5:58 

     This program is part of the open-source Quantum ESPRESSO suite
     for quantum simulation of materials; please cite
         "P. Giannozzi et al., J. Phys.:Condens. Matter 21 395502 (2009);
         "P. Giannozzi et al., J. Phys.:Condens. Matter 29 465901 (2017);
          URL http://www.quantum-espresso.org", 
     in publications or presentations arising from this work. More details at
     http://www.quantum-espresso.org/quote

     Parallel version (MPI), running on     6 processors

     MPI processes distributed on     1 nodes
     R & G space division:  proc/nbgrp/npool/nimage =       6
     Reading input from distance-2.6.in

     Current dimensions of program PWSCF are:
     Max number of different atomic species (ntypx) = 10
     Max number of k-points (npk) =  40000
     Max angular momentum in pseudopotentials (lmaxx) =  3

     IMPORTANT: XC functional enforced from input :
     Exchange-correlation      = RVV10 ( 1  4 13  4 3 0)
     Any further DFT definition will be discarded
     Please, verify this is what you really want

               file H.pbe-rrkjus.UPF: wavefunction(s)  1S renormalized
               file Mn.pbe-spn-rrkjus_psl.0.3.1.UPF: wavefunction(s)  3D renormalized

     Subspace diagonalization in iterative solution of the eigenvalue problem:
     a serial algorithm will be used


     Parallelization info
     --------------------
     sticks:   dense  smooth     PW     G-vecs:    dense   smooth      PW
     Min        3051    1746    432               270999   117096   14629
     Max        3053    1747    437               271001   117099   14630
     Sum       18313   10477   2611              1626001   702581   87777



     bravais-lattice index     =            4
     lattice parameter (alat)  =      23.2937  a.u.
     unit-cell volume          =    8879.8548 (a.u.)^3
     number of atoms/cell      =           52
     number of atomic types    =            3
     number of electrons       =       213.00
     number of Kohn-Sham states=          128
     kinetic-energy cutoff     =      70.0000  Ry
     charge density cutoff     =     490.0000  Ry
     convergence threshold     =      1.0E-06
     mixing beta               =       0.7000
     number of iterations used =            8  plain     mixing
     Exchange-correlation      = RVV10 ( 1  4 13  4 3 0)

     celldm(1)=  23.293684  celldm(2)=   0.000000  celldm(3)=   0.811261
     celldm(4)=   0.000000  celldm(5)=   0.000000  celldm(6)=   0.000000

     crystal axes: (cart. coord. in units of alat)
               a(1) = (   1.000000   0.000000   0.000000 )  
               a(2) = (  -0.500000   0.866025   0.000000 )  
               a(3) = (   0.000000   0.000000   0.811261 )  

     reciprocal axes: (cart. coord. in units 2 pi/alat)
               b(1) = (  1.000000  0.577350 -0.000000 )  
               b(2) = (  0.000000  1.154701  0.000000 )  
               b(3) = (  0.000000 -0.000000  1.232649 )  


     PseudoPot. # 1 for H  read from file:
     /home/cristian/Escritorio/Proyecto_Grafeno/pseudopotenciales/H.pbe-rrkjus.UPF
     MD5 check sum: 7cc9d459525c9a0585f487a71c3c9563
     Pseudo is Ultrasoft, Zval =  1.0
     Generated by new atomic code, or converted to UPF format
     Using radial grid of 1061 points,  2 beta functions with: 
                l(1) =   0
                l(2) =   0
     Q(r) pseudized with 0 coefficients 


     PseudoPot. # 2 for C  read from file:
     /home/cristian/Escritorio/Proyecto_Grafeno/pseudopotenciales/C.pbe-n-rrkjus_psl.1.0.0.UPF
     MD5 check sum: 1fdd950c42eb37d8afe3dd2f8d12311e
     Pseudo is Ultrasoft + core correction, Zval =  4.0
     Generated using "atomic" code by A. Dal Corso v.6.3MaX
     Using radial grid of 1073 points,  4 beta functions with: 
                l(1) =   0
                l(2) =   0
                l(3) =   1
                l(4) =   1
     Q(r) pseudized with 0 coefficients 


     PseudoPot. # 3 for Mn read from file:
     /home/cristian/Escritorio/Proyecto_Grafeno/pseudopotenciales/Mn.pbe-spn-rrkjus_psl.0.3.1.UPF
     MD5 check sum: e1cac159bdd2ba70c18e85765a5d4279
     Pseudo is Ultrasoft + core correction, Zval = 15.0
     Generated using "atomic" code by A. Dal Corso v.6.2.2
     Using radial grid of 1187 points,  6 beta functions with: 
                l(1) =   0
                l(2) =   0
                l(3) =   1
                l(4) =   1
                l(5) =   2
                l(6) =   2
     Q(r) pseudized with 0 coefficients 


     vdW kernel table read from file rVV10_kernel_table
     MD5 check sum: b8e2538accc0c0b3206b45ba4daaba6c

     atomic species   valence    mass     pseudopotential
        H              1.00     1.00794     H ( 1.00)
        C              4.00    12.01070     C ( 1.00)
        Mn            15.00    54.93804     Mn( 1.00)

     No symmetry found


                                    s                        frac. trans.

      isym =  1     identity                                     

 cryst.   s( 1) = (     1          0          0      )
                  (     0          1          0      )
                  (     0          0          1      )

 cart.    s( 1) = (  1.0000000  0.0000000  0.0000000 )
                  (  0.0000000  1.0000000  0.0000000 )
                  (  0.0000000  0.0000000  1.0000000 )


     point group C_1 (1)    
     there are  1 classes
     the character table:

       E    
A      1.00

     the symmetry operations in each class and the name of the first element:

     E        1
          identity                                               

   Cartesian axes

     site n.     atom                  positions (alat units)
         1           H   tau(   1) = (   0.2666667   0.4618802   0.2109279  )
         2           H   tau(   2) = (   0.2666667   0.4618802   0.2719406  )
         3           C   tau(   3) = (   0.0000000   0.0000000   0.0000000  )
         4           C   tau(   4) = (   0.0000000   0.1154701   0.0000000  )
         5           C   tau(   5) = (  -0.1000000   0.1732051   0.0000000  )
         6           C   tau(   6) = (  -0.1000000   0.2886751   0.0000000  )
         7           C   tau(   7) = (  -0.2000000   0.3464102   0.0000000  )
         8           C   tau(   8) = (  -0.2000000   0.4618802   0.0000000  )
         9           C   tau(   9) = (  -0.3000000   0.5196152   0.0000000  )
        10           C   tau(  10) = (  -0.3000000   0.6350853   0.0000000  )
        11           C   tau(  11) = (  -0.4000000   0.6928203   0.0000000  )
        12           C   tau(  12) = (  -0.4000000   0.8082904   0.0000000  )
        13           C   tau(  13) = (   0.2000000   0.0000000   0.0000000  )
        14           C   tau(  14) = (   0.2000000   0.1154701   0.0000000  )
        15           C   tau(  15) = (   0.1000000   0.1732051   0.0000000  )
        16           C   tau(  16) = (   0.1000000   0.2886751   0.0000000  )
        17           C   tau(  17) = (   0.0000000   0.3464102   0.0000000  )
        18           C   tau(  18) = (   0.0000000   0.4618802   0.0000000  )
        19           C   tau(  19) = (  -0.1000000   0.5196152   0.0000000  )
        20           C   tau(  20) = (  -0.1000000   0.6350853   0.0000000  )
        21           C   tau(  21) = (  -0.2000000   0.6928203   0.0000000  )
        22           C   tau(  22) = (  -0.2000000   0.8082904   0.0000000  )
        23           C   tau(  23) = (   0.4000000   0.0000000   0.0000000  )
        24           C   tau(  24) = (   0.4000000   0.1154701   0.0000000  )
        25           C   tau(  25) = (   0.3000000   0.1732051   0.0000000  )
        26           C   tau(  26) = (   0.3000000   0.2886751   0.0000000  )
        27           C   tau(  27) = (   0.2000000   0.3464102   0.0000000  )
        28           Mn  tau(  28) = (   0.2000000   0.4618802   0.0000000  )
        29           C   tau(  29) = (   0.1000000   0.5196152   0.0000000  )
        30           C   tau(  30) = (   0.1000000   0.6350853   0.0000000  )
        31           C   tau(  31) = (   0.0000000   0.6928203   0.0000000  )
        32           C   tau(  32) = (   0.0000000   0.8082904   0.0000000  )
        33           C   tau(  33) = (   0.6000000   0.0000000   0.0000000  )
        34           C   tau(  34) = (   0.6000000   0.1154701   0.0000000  )
        35           C   tau(  35) = (   0.5000000   0.1732051   0.0000000  )
        36           C   tau(  36) = (   0.5000000   0.2886751   0.0000000  )
        37           C   tau(  37) = (   0.4000000   0.3464102   0.0000000  )
        38           C   tau(  38) = (   0.4000000   0.4618802   0.0000000  )
        39           C   tau(  39) = (   0.3000000   0.5196152   0.0000000  )
        40           C   tau(  40) = (   0.3000000   0.6350853   0.0000000  )
        41           C   tau(  41) = (   0.2000000   0.6928203   0.0000000  )
        42           C   tau(  42) = (   0.2000000   0.8082904   0.0000000  )
        43           C   tau(  43) = (   0.8000000   0.0000000   0.0000000  )
        44           C   tau(  44) = (   0.8000000   0.1154701   0.0000000  )
        45           C   tau(  45) = (   0.7000000   0.1732051   0.0000000  )
        46           C   tau(  46) = (   0.7000000   0.2886751   0.0000000  )
        47           C   tau(  47) = (   0.6000000   0.3464102   0.0000000  )
        48           C   tau(  48) = (   0.6000000   0.4618802   0.0000000  )
        49           C   tau(  49) = (   0.5000000   0.5196152   0.0000000  )
        50           C   tau(  50) = (   0.5000000   0.6350853   0.0000000  )
        51           C   tau(  51) = (   0.4000000   0.6928203   0.0000000  )
        52           C   tau(  52) = (   0.4000000   0.8082904   0.0000000  )

   Crystallographic axes

     site n.     atom                  positions (cryst. coord.)
         1           H   tau(   1) = (  0.5333333  0.5333333  0.2600000  )
         2           H   tau(   2) = (  0.5333333  0.5333333  0.3352072  )
         3           C   tau(   3) = (  0.0000000  0.0000000  0.0000000  )
         4           C   tau(   4) = (  0.0666667  0.1333333  0.0000000  )
         5           C   tau(   5) = (  0.0000000  0.2000000  0.0000000  )
         6           C   tau(   6) = (  0.0666667  0.3333333  0.0000000  )
         7           C   tau(   7) = (  0.0000000  0.4000000  0.0000000  )
         8           C   tau(   8) = (  0.0666667  0.5333333  0.0000000  )
         9           C   tau(   9) = (  0.0000000  0.6000000  0.0000000  )
        10           C   tau(  10) = (  0.0666667  0.7333333  0.0000000  )
        11           C   tau(  11) = (  0.0000000  0.8000000  0.0000000  )
        12           C   tau(  12) = (  0.0666667  0.9333333  0.0000000  )
        13           C   tau(  13) = (  0.2000000  0.0000000  0.0000000  )
        14           C   tau(  14) = (  0.2666667  0.1333333  0.0000000  )
        15           C   tau(  15) = (  0.2000000  0.2000000  0.0000000  )
        16           C   tau(  16) = (  0.2666667  0.3333333  0.0000000  )
        17           C   tau(  17) = (  0.2000000  0.4000000  0.0000000  )
        18           C   tau(  18) = (  0.2666667  0.5333333  0.0000000  )
        19           C   tau(  19) = (  0.2000000  0.6000000  0.0000000  )
        20           C   tau(  20) = (  0.2666667  0.7333333  0.0000000  )
        21           C   tau(  21) = (  0.2000000  0.8000000  0.0000000  )
        22           C   tau(  22) = (  0.2666667  0.9333333  0.0000000  )
        23           C   tau(  23) = (  0.4000000  0.0000000  0.0000000  )
        24           C   tau(  24) = (  0.4666667  0.1333333  0.0000000  )
        25           C   tau(  25) = (  0.4000000  0.2000000  0.0000000  )
        26           C   tau(  26) = (  0.4666667  0.3333333  0.0000000  )
        27           C   tau(  27) = (  0.4000000  0.4000000  0.0000000  )
        28           Mn  tau(  28) = (  0.4666667  0.5333333  0.0000000  )
        29           C   tau(  29) = (  0.4000000  0.6000000  0.0000000  )
        30           C   tau(  30) = (  0.4666667  0.7333333  0.0000000  )
        31           C   tau(  31) = (  0.4000000  0.8000000  0.0000000  )
        32           C   tau(  32) = (  0.4666667  0.9333333  0.0000000  )
        33           C   tau(  33) = (  0.6000000  0.0000000  0.0000000  )
        34           C   tau(  34) = (  0.6666667  0.1333333  0.0000000  )
        35           C   tau(  35) = (  0.6000000  0.2000000  0.0000000  )
        36           C   tau(  36) = (  0.6666667  0.3333333  0.0000000  )
        37           C   tau(  37) = (  0.6000000  0.4000000  0.0000000  )
        38           C   tau(  38) = (  0.6666667  0.5333333  0.0000000  )
        39           C   tau(  39) = (  0.6000000  0.6000000  0.0000000  )
        40           C   tau(  40) = (  0.6666667  0.7333333  0.0000000  )
        41           C   tau(  41) = (  0.6000000  0.8000000  0.0000000  )
        42           C   tau(  42) = (  0.6666667  0.9333333  0.0000000  )
        43           C   tau(  43) = (  0.8000000  0.0000000  0.0000000  )
        44           C   tau(  44) = (  0.8666667  0.1333333  0.0000000  )
        45           C   tau(  45) = (  0.8000000  0.2000000  0.0000000  )
        46           C   tau(  46) = (  0.8666667  0.3333333  0.0000000  )
        47           C   tau(  47) = (  0.8000000  0.4000000  0.0000000  )
        48           C   tau(  48) = (  0.8666667  0.5333333  0.0000000  )
        49           C   tau(  49) = (  0.8000000  0.6000000  0.0000000  )
        50           C   tau(  50) = (  0.8666667  0.7333333  0.0000000  )
        51           C   tau(  51) = (  0.8000000  0.8000000  0.0000000  )
        52           C   tau(  52) = (  0.8666667  0.9333333  0.0000000  )

     number of k points=     1  Marzari-Vanderbilt smearing, width (Ry)=  0.0010
                       cart. coord. in units 2pi/alat
        k(    1) = (   0.0000000   0.0000000   0.0000000), wk =   2.0000000

                       cryst. coord.
        k(    1) = (   0.0000000   0.0000000   0.0000000), wk =   2.0000000

     Dense  grid:  1626001 G-vectors     FFT dimensions: ( 180, 180, 135)

     Smooth grid:   702581 G-vectors     FFT dimensions: ( 125, 125, 108)

     Dynamical RAM for                 wfc:      28.59 MB

     Dynamical RAM for     wfc (w. buffer):      28.59 MB

     Dynamical RAM for           str. fact:      12.41 MB

     Dynamical RAM for           local pot:       0.00 MB

     Dynamical RAM for          nlocal pot:      92.46 MB

     Dynamical RAM for                qrad:      19.73 MB

     Dynamical RAM for          rho,v,vnew:      29.46 MB

     Dynamical RAM for               rhoin:       9.82 MB

     Dynamical RAM for            rho*nmix:      66.16 MB

     Dynamical RAM for           G-vectors:      16.40 MB

     Dynamical RAM for          h,s,v(r/c):      12.00 MB

     Dynamical RAM for          <psi|beta>:       0.81 MB

     Dynamical RAM for                 psi:     114.35 MB

     Dynamical RAM for                hpsi:     114.35 MB

     Dynamical RAM for                spsi:     114.35 MB

     Dynamical RAM for      wfcinit/wfcrot:      93.90 MB

     Dynamical RAM for           addusdens:     971.75 MB

     Estimated static dynamical RAM per process >     320.00 MB

     Estimated max dynamical RAM per process >       1.26 GB

     Estimated total dynamical RAM >       7.57 GB

     Check: negative core charge=   -0.000002

     Initial potential from superposition of free atoms

     starting charge  212.80506, renormalised to  213.00000

     negative rho (up, down):  7.030E-05 0.000E+00


---------------------------------------------------------------------------------
Carrying out rVV10 run using the following parameters:
Nqs =      20    Nr_points =    1024   r_max =   100.000
b_value =  6.30000    beta =  0.00901
     q_mesh =  0.00010000  0.00030000  0.00058939  0.00100810
               0.00161396  0.00249058  0.00375900  0.00559430
               0.00824984  0.01209221  0.01765183  0.02569619
               0.03733578  0.05417739  0.07854596  0.11380545
               0.16482331  0.23864234  0.34545298  0.50000000

Gradients computed in Reciprocal space

---------------------------------------------------------------------------------


     Starting wfcs are  208 randomized atomic wfcs

     total cpu time spent up to now is       48.0 secs

     Self-consistent Calculation

     iteration #  1     ecut=    70.00 Ry     beta= 0.70
     Davidson diagonalization with overlap
     ethr =  1.00E-02,  avg # of iterations =  2.0

     negative rho (up, down):  1.398E-04 0.000E+00

     total cpu time spent up to now is      115.8 secs

     total energy              =    -823.08496074 Ry
     Harris-Foulkes estimate   =    -828.81790115 Ry
     estimated scf accuracy    <       8.43023910 Ry

     iteration #  2     ecut=    70.00 Ry     beta= 0.70
     Davidson diagonalization with overlap
     ethr =  3.96E-03,  avg # of iterations =  7.0

     negative rho (up, down):  1.718E-04 0.000E+00

     total cpu time spent up to now is      183.6 secs

     total energy              =    -815.47517613 Ry
     Harris-Foulkes estimate   =    -835.14494070 Ry
     estimated scf accuracy    <      80.85938342 Ry

     iteration #  3     ecut=    70.00 Ry     beta= 0.70
     Davidson diagonalization with overlap
     ethr =  3.96E-03,  avg # of iterations =  5.0

     negative rho (up, down):  2.256E-04 0.000E+00

     total cpu time spent up to now is      279.1 secs

     total energy              =    -825.00232139 Ry
     Harris-Foulkes estimate   =    -826.92655458 Ry
     estimated scf accuracy    <       9.05022959 Ry

     iteration #  4     ecut=    70.00 Ry     beta= 0.70
     Davidson diagonalization with overlap
     ethr =  3.96E-03,  avg # of iterations =  3.0

     negative rho (up, down):  2.530E-04 0.000E+00

     total cpu time spent up to now is      330.4 secs

     total energy              =    -825.68289357 Ry
     Harris-Foulkes estimate   =    -826.21694156 Ry
     estimated scf accuracy    <       1.55044919 Ry

     iteration #  5     ecut=    70.00 Ry     beta= 0.70
     Davidson diagonalization with overlap
     ethr =  7.28E-04,  avg # of iterations =  6.0

     negative rho (up, down):  2.744E-04 0.000E+00

     total cpu time spent up to now is      386.9 secs

     total energy              =    -825.86637887 Ry
     Harris-Foulkes estimate   =    -825.95693738 Ry
     estimated scf accuracy    <       0.31516714 Ry

     iteration #  6     ecut=    70.00 Ry     beta= 0.70
     Davidson diagonalization with overlap
     ethr =  1.48E-04,  avg # of iterations =  8.0

     negative rho (up, down):  2.953E-04 0.000E+00

     total cpu time spent up to now is      439.6 secs

     total energy              =    -825.88572814 Ry
     Harris-Foulkes estimate   =    -825.91440994 Ry
     estimated scf accuracy    <       0.18990831 Ry

     iteration #  7     ecut=    70.00 Ry     beta= 0.70
     Davidson diagonalization with overlap
     ethr =  8.92E-05,  avg # of iterations =  2.0

     negative rho (up, down):  3.330E-04 0.000E+00

     total cpu time spent up to now is      490.2 secs

     total energy              =    -825.86721816 Ry
     Harris-Foulkes estimate   =    -825.92304869 Ry
     estimated scf accuracy    <       0.47445868 Ry

     iteration #  8     ecut=    70.00 Ry     beta= 0.70
     Davidson diagonalization with overlap
     ethr =  8.92E-05,  avg # of iterations =  2.0

     negative rho (up, down):  4.683E-04 0.000E+00

     total cpu time spent up to now is      541.6 secs

     total energy              =    -825.89800438 Ry
     Harris-Foulkes estimate   =    -825.92022007 Ry
     estimated scf accuracy    <       0.29630169 Ry

     iteration #  9     ecut=    70.00 Ry     beta= 0.70
     Davidson diagonalization with overlap
     ethr =  8.92E-05,  avg # of iterations =  1.0

     negative rho (up, down):  5.536E-04 0.000E+00

     total cpu time spent up to now is      592.2 secs

     total energy              =    -825.89551915 Ry
     Harris-Foulkes estimate   =    -825.90322193 Ry
     estimated scf accuracy    <       0.18954795 Ry

     iteration # 10     ecut=    70.00 Ry     beta= 0.70
     Davidson diagonalization with overlap
     ethr =  8.90E-05,  avg # of iterations =  1.0

     negative rho (up, down):  5.740E-04 0.000E+00

     total cpu time spent up to now is      642.7 secs

     total energy              =    -825.89484768 Ry
     Harris-Foulkes estimate   =    -825.89934798 Ry
     estimated scf accuracy    <       0.06133912 Ry

     iteration # 11     ecut=    70.00 Ry     beta= 0.70
     Davidson diagonalization with overlap
     ethr =  2.88E-05,  avg # of iterations =  1.0

     negative rho (up, down):  5.885E-04 0.000E+00

     total cpu time spent up to now is      693.1 secs

     total energy              =    -825.89514214 Ry
     Harris-Foulkes estimate   =    -825.89918954 Ry
     estimated scf accuracy    <       0.05449122 Ry

     iteration # 12     ecut=    70.00 Ry     beta= 0.70
     Davidson diagonalization with overlap
     ethr =  2.56E-05,  avg # of iterations =  1.0

     negative rho (up, down):  5.845E-04 0.000E+00

     total cpu time spent up to now is      743.5 secs

     total energy              =    -825.89559889 Ry
     Harris-Foulkes estimate   =    -825.89738058 Ry
     estimated scf accuracy    <       0.03014045 Ry

     iteration # 13     ecut=    70.00 Ry     beta= 0.70
     Davidson diagonalization with overlap
     ethr =  1.42E-05,  avg # of iterations =  1.0

     negative rho (up, down):  6.079E-04 0.000E+00

     total cpu time spent up to now is      794.0 secs

     total energy              =    -825.89202739 Ry
     Harris-Foulkes estimate   =    -825.90101119 Ry
     estimated scf accuracy    <       0.46820090 Ry

     iteration # 14     ecut=    70.00 Ry     beta= 0.70
     Davidson diagonalization with overlap
     ethr =  1.42E-05,  avg # of iterations =  1.0

     negative rho (up, down):  6.161E-04 0.000E+00

     total cpu time spent up to now is      844.6 secs

     total energy              =    -825.89632704 Ry
     Harris-Foulkes estimate   =    -825.89838139 Ry
     estimated scf accuracy    <       0.11975155 Ry

     iteration # 15     ecut=    70.00 Ry     beta= 0.70
     Davidson diagonalization with overlap
     ethr =  1.42E-05,  avg # of iterations =  1.0

     negative rho (up, down):  6.266E-04 0.000E+00

     total cpu time spent up to now is      895.1 secs

     total energy              =    -825.89691908 Ry
     Harris-Foulkes estimate   =    -825.89735023 Ry
     estimated scf accuracy    <       0.00933599 Ry

     iteration # 16     ecut=    70.00 Ry     beta= 0.70
     Davidson diagonalization with overlap
     ethr =  4.38E-06,  avg # of iterations =  1.0

     negative rho (up, down):  6.238E-04 0.000E+00

     total cpu time spent up to now is      945.8 secs

     total energy              =    -825.89692109 Ry
     Harris-Foulkes estimate   =    -825.89722637 Ry
     estimated scf accuracy    <       0.01553969 Ry

     iteration # 17     ecut=    70.00 Ry     beta= 0.70
     Davidson diagonalization with overlap
     ethr =  4.38E-06,  avg # of iterations =  1.0

     negative rho (up, down):  6.330E-04 0.000E+00

     total cpu time spent up to now is      996.1 secs

     total energy              =    -825.89701426 Ry
     Harris-Foulkes estimate   =    -825.89722698 Ry
     estimated scf accuracy    <       0.02282421 Ry

     iteration # 18     ecut=    70.00 Ry     beta= 0.70
     Davidson diagonalization with overlap
     ethr =  4.38E-06,  avg # of iterations =  1.0

     negative rho (up, down):  6.371E-04 0.000E+00

     total cpu time spent up to now is     1046.5 secs

     total energy              =    -825.89704460 Ry
     Harris-Foulkes estimate   =    -825.89715321 Ry
     estimated scf accuracy    <       0.00155537 Ry

     iteration # 19     ecut=    70.00 Ry     beta= 0.70
     Davidson diagonalization with overlap
     ethr =  7.30E-07,  avg # of iterations =  1.0

     negative rho (up, down):  6.419E-04 0.000E+00

     total cpu time spent up to now is     1096.9 secs

     total energy              =    -825.89700886 Ry
     Harris-Foulkes estimate   =    -825.89707596 Ry
     estimated scf accuracy    <       0.00182187 Ry

     iteration # 20     ecut=    70.00 Ry     beta= 0.70
     Davidson diagonalization with overlap
     ethr =  7.30E-07,  avg # of iterations =  1.0

     negative rho (up, down):  6.398E-04 0.000E+00

     total cpu time spent up to now is     1147.3 secs

     total energy              =    -825.89702155 Ry
     Harris-Foulkes estimate   =    -825.89702306 Ry
     estimated scf accuracy    <       0.00139073 Ry

     iteration # 21     ecut=    70.00 Ry     beta= 0.70
     Davidson diagonalization with overlap
     ethr =  6.53E-07,  avg # of iterations =  1.0

     negative rho (up, down):  6.406E-04 0.000E+00

     total cpu time spent up to now is     1197.7 secs

     total energy              =    -825.89700601 Ry
     Harris-Foulkes estimate   =    -825.89704129 Ry
     estimated scf accuracy    <       0.00165490 Ry

     iteration # 22     ecut=    70.00 Ry     beta= 0.70
     Davidson diagonalization with overlap
     ethr =  6.53E-07,  avg # of iterations =  1.0

     negative rho (up, down):  6.401E-04 0.000E+00

     total cpu time spent up to now is     1248.1 secs

     total energy              =    -825.89659413 Ry
     Harris-Foulkes estimate   =    -825.89701640 Ry
     estimated scf accuracy    <       0.00115480 Ry

     iteration # 23     ecut=    70.00 Ry     beta= 0.70
     Davidson diagonalization with overlap
     ethr =  5.42E-07,  avg # of iterations =  4.0

     negative rho (up, down):  6.431E-04 0.000E+00

     total cpu time spent up to now is     1307.2 secs

     total energy              =    -825.89361227 Ry
     Harris-Foulkes estimate   =    -825.90252057 Ry
     estimated scf accuracy    <       0.49657076 Ry

     iteration # 24     ecut=    70.00 Ry     beta= 0.70
     Davidson diagonalization with overlap
     ethr =  5.42E-07,  avg # of iterations =  4.0

     negative rho (up, down):  6.414E-04 0.000E+00

     total cpu time spent up to now is     1364.8 secs

     total energy              =    -825.89698812 Ry
     Harris-Foulkes estimate   =    -825.89704028 Ry
     estimated scf accuracy    <       0.00267678 Ry

     iteration # 25     ecut=    70.00 Ry     beta= 0.70
     Davidson diagonalization with overlap
     ethr =  5.42E-07,  avg # of iterations =  1.0

     negative rho (up, down):  6.420E-04 0.000E+00

     total cpu time spent up to now is     1415.1 secs

     total energy              =    -825.89700248 Ry
     Harris-Foulkes estimate   =    -825.89702508 Ry
     estimated scf accuracy    <       0.00197658 Ry

     iteration # 26     ecut=    70.00 Ry     beta= 0.70
     Davidson diagonalization with overlap
     ethr =  5.42E-07,  avg # of iterations =  1.0

     negative rho (up, down):  6.435E-04 0.000E+00

     total cpu time spent up to now is     1465.5 secs

     total energy              =    -825.89696830 Ry
     Harris-Foulkes estimate   =    -825.89700650 Ry
     estimated scf accuracy    <       0.00108738 Ry

     iteration # 27     ecut=    70.00 Ry     beta= 0.70
     Davidson diagonalization with overlap
     ethr =  5.11E-07,  avg # of iterations =  1.0

     negative rho (up, down):  6.433E-04 0.000E+00

     total cpu time spent up to now is     1516.1 secs

     total energy              =    -825.89698692 Ry
     Harris-Foulkes estimate   =    -825.89699384 Ry
     estimated scf accuracy    <       0.00019537 Ry

     iteration # 28     ecut=    70.00 Ry     beta= 0.70
     Davidson diagonalization with overlap
     ethr =  9.17E-08,  avg # of iterations =  1.0

     negative rho (up, down):  6.433E-04 0.000E+00

     total cpu time spent up to now is     1566.5 secs

     total energy              =    -825.89698985 Ry
     Harris-Foulkes estimate   =    -825.89699075 Ry
     estimated scf accuracy    <       0.00001385 Ry

     iteration # 29     ecut=    70.00 Ry     beta= 0.70
     Davidson diagonalization with overlap
     ethr =  6.50E-09,  avg # of iterations =  3.0

     negative rho (up, down):  6.433E-04 0.000E+00

     total cpu time spent up to now is     1618.7 secs

     total energy              =    -825.89698608 Ry
     Harris-Foulkes estimate   =    -825.89699510 Ry
     estimated scf accuracy    <       0.00037990 Ry

     iteration # 30     ecut=    70.00 Ry     beta= 0.70
     Davidson diagonalization with overlap
     ethr =  6.50E-09,  avg # of iterations =  2.0

     negative rho (up, down):  6.434E-04 0.000E+00

     total cpu time spent up to now is     1669.4 secs

     total energy              =    -825.89698999 Ry
     Harris-Foulkes estimate   =    -825.89699085 Ry
     estimated scf accuracy    <       0.00003489 Ry

     iteration # 31     ecut=    70.00 Ry     beta= 0.70
     Davidson diagonalization with overlap
     ethr =  6.50E-09,  avg # of iterations =  1.0

     negative rho (up, down):  6.434E-04 0.000E+00

     total cpu time spent up to now is     1720.0 secs

     total energy              =    -825.89699012 Ry
     Harris-Foulkes estimate   =    -825.89699097 Ry
     estimated scf accuracy    <       0.00002242 Ry

     iteration # 32     ecut=    70.00 Ry     beta= 0.70
     Davidson diagonalization with overlap
     ethr =  6.50E-09,  avg # of iterations =  1.0

     negative rho (up, down):  6.433E-04 0.000E+00

     total cpu time spent up to now is     1770.4 secs

     total energy              =    -825.89698998 Ry
     Harris-Foulkes estimate   =    -825.89699086 Ry
     estimated scf accuracy    <       0.00002559 Ry

     iteration # 33     ecut=    70.00 Ry     beta= 0.70
     Davidson diagonalization with overlap
     ethr =  6.50E-09,  avg # of iterations =  1.0

     negative rho (up, down):  6.433E-04 0.000E+00

     total cpu time spent up to now is     1820.7 secs

     total energy              =    -825.89699018 Ry
     Harris-Foulkes estimate   =    -825.89699094 Ry
     estimated scf accuracy    <       0.00009044 Ry

     iteration # 34     ecut=    70.00 Ry     beta= 0.70
     Davidson diagonalization with overlap
     ethr =  6.50E-09,  avg # of iterations =  1.0

     negative rho (up, down):  6.433E-04 0.000E+00

     total cpu time spent up to now is     1871.2 secs

     total energy              =    -825.89699048 Ry
     Harris-Foulkes estimate   =    -825.89699062 Ry
     estimated scf accuracy    <       0.00000306 Ry

     iteration # 35     ecut=    70.00 Ry     beta= 0.70
     Davidson diagonalization with overlap
     ethr =  1.44E-09,  avg # of iterations =  1.0

     negative rho (up, down):  6.434E-04 0.000E+00

     total cpu time spent up to now is     1921.5 secs

     total energy              =    -825.89699041 Ry
     Harris-Foulkes estimate   =    -825.89699063 Ry
     estimated scf accuracy    <       0.00000488 Ry

     iteration # 36     ecut=    70.00 Ry     beta= 0.70
     Davidson diagonalization with overlap
     ethr =  1.44E-09,  avg # of iterations =  1.0

     negative rho (up, down):  6.434E-04 0.000E+00

     total cpu time spent up to now is     1971.9 secs

     total energy              =    -825.89699041 Ry
     Harris-Foulkes estimate   =    -825.89699061 Ry
     estimated scf accuracy    <       0.00000750 Ry

     iteration # 37     ecut=    70.00 Ry     beta= 0.70
     Davidson diagonalization with overlap
     ethr =  1.44E-09,  avg # of iterations =  1.0

     negative rho (up, down):  6.434E-04 0.000E+00

     total cpu time spent up to now is     2022.2 secs

     total energy              =    -825.89699011 Ry
     Harris-Foulkes estimate   =    -825.89699098 Ry
     estimated scf accuracy    <       0.00002671 Ry

     iteration # 38     ecut=    70.00 Ry     beta= 0.70
     Davidson diagonalization with overlap
     ethr =  1.44E-09,  avg # of iterations =  1.0

     negative rho (up, down):  6.434E-04 0.000E+00

     total cpu time spent up to now is     2072.5 secs

     total energy              =    -825.89699040 Ry
     Harris-Foulkes estimate   =    -825.89699068 Ry
     estimated scf accuracy    <       0.00001312 Ry

     iteration # 39     ecut=    70.00 Ry     beta= 0.70
     Davidson diagonalization with overlap
     ethr =  1.44E-09,  avg # of iterations =  1.0

     negative rho (up, down):  6.434E-04 0.000E+00

     total cpu time spent up to now is     2122.7 secs

     total energy              =    -825.89699046 Ry
     Harris-Foulkes estimate   =    -825.89699055 Ry
     estimated scf accuracy    <       0.00000130 Ry

     iteration # 40     ecut=    70.00 Ry     beta= 0.70
     Davidson diagonalization with overlap
     ethr =  6.11E-10,  avg # of iterations =  1.0

     negative rho (up, down):  6.434E-04 0.000E+00

     total cpu time spent up to now is     2173.0 secs

     total energy              =    -825.89699041 Ry
     Harris-Foulkes estimate   =    -825.89699063 Ry
     estimated scf accuracy    <       0.00000752 Ry

     iteration # 41     ecut=    70.00 Ry     beta= 0.70
     Davidson diagonalization with overlap
     ethr =  6.11E-10,  avg # of iterations =  1.0

     negative rho (up, down):  6.434E-04 0.000E+00

     total cpu time spent up to now is     2223.3 secs

     total energy              =    -825.89699038 Ry
     Harris-Foulkes estimate   =    -825.89699068 Ry
     estimated scf accuracy    <       0.00000894 Ry

     iteration # 42     ecut=    70.00 Ry     beta= 0.70
     Davidson diagonalization with overlap
     ethr =  6.11E-10,  avg # of iterations =  1.0

     negative rho (up, down):  6.434E-04 0.000E+00

     total cpu time spent up to now is     2274.0 secs

     total energy              =    -825.89699043 Ry
     Harris-Foulkes estimate   =    -825.89699062 Ry
     estimated scf accuracy    <       0.00000478 Ry

     iteration # 43     ecut=    70.00 Ry     beta= 0.70
     Davidson diagonalization with overlap
     ethr =  6.11E-10,  avg # of iterations =  1.0

     negative rho (up, down):  6.434E-04 0.000E+00

     total cpu time spent up to now is     2324.4 secs

     total energy              =    -825.89699050 Ry
     Harris-Foulkes estimate   =    -825.89699053 Ry
     estimated scf accuracy    <       0.00000250 Ry

     iteration # 44     ecut=    70.00 Ry     beta= 0.70
     Davidson diagonalization with overlap
     ethr =  6.11E-10,  avg # of iterations =  1.0

     negative rho (up, down):  6.433E-04 0.000E+00

     total cpu time spent up to now is     2374.6 secs

     total energy              =    -825.89699038 Ry
     Harris-Foulkes estimate   =    -825.89699066 Ry
     estimated scf accuracy    <       0.00001152 Ry

     iteration # 45     ecut=    70.00 Ry     beta= 0.70
     Davidson diagonalization with overlap
     ethr =  6.11E-10,  avg # of iterations =  1.0

     negative rho (up, down):  6.434E-04 0.000E+00

     total cpu time spent up to now is     2425.0 secs

     total energy              =    -825.89699045 Ry
     Harris-Foulkes estimate   =    -825.89699058 Ry
     estimated scf accuracy    <       0.00000233 Ry

     iteration # 46     ecut=    70.00 Ry     beta= 0.70
     Davidson diagonalization with overlap
     ethr =  6.11E-10,  avg # of iterations =  1.0

     negative rho (up, down):  6.434E-04 0.000E+00

     total cpu time spent up to now is     2475.1 secs

     End of self-consistent calculation

          k = 0.0000 0.0000 0.0000 ( 87777 PWs)   bands (ev):

   -80.0395 -49.6793 -49.6788 -48.2600 -19.7594 -18.9224 -18.9199 -18.8332
   -18.8185 -18.8179 -18.4607 -17.0629 -17.0628 -17.0610 -16.9707 -16.9699
   -16.6730 -16.2121 -16.2108 -16.1122 -16.0496 -16.0486 -15.3566 -14.0963
   -14.0949 -14.0238 -13.9886 -13.9883 -13.3320 -13.0563 -13.0553 -13.0260
   -12.7315 -12.7310 -12.3023 -11.8277 -11.8267 -11.6481 -11.3754 -11.3751
   -10.4568  -9.6440  -9.6438  -9.4300  -9.3036  -9.3033  -9.2210  -9.1875
    -9.1872  -9.1776  -8.6912  -8.6903  -8.1454  -8.1445  -8.0486  -7.9048
    -7.8259  -7.4225  -7.4217  -7.1726  -7.1475  -7.1026  -6.8912  -6.8904
    -6.8399  -6.7993  -6.7967  -6.7386  -6.7105  -6.5539  -6.5529  -6.5285
    -6.5192  -6.5179  -6.4709  -6.3129  -5.5137  -5.5058  -5.5047  -5.4988
    -5.2844  -5.2842  -4.9804  -4.8780  -4.8513  -4.7141  -4.6843  -4.6832
    -4.3670  -4.1678  -4.1665  -4.1234  -4.1221  -3.8238  -3.8230  -3.7482
    -3.6625  -3.6617  -3.1160  -2.6260  -2.6251  -1.8131  -1.7919  -1.7918
    -0.8439  -0.8344  -0.8334  -0.8309   0.9718   0.9799   0.9812   1.6440
     1.6460   1.6496   2.5604   2.8197   2.8210   2.8850   3.1420   3.1491
     3.5185   3.5516   3.5538   3.7001   3.7117   3.7827   3.7918   3.7975

     occupation numbers 
     1.0000   1.0000   1.0000   1.0000   1.0000   1.0000   1.0000   1.0000
     1.0000   1.0000   1.0000   1.0000   1.0000   1.0000   1.0000   1.0000
     1.0000   1.0000   1.0000   1.0000   1.0000   1.0000   1.0000   1.0000
     1.0000   1.0000   1.0000   1.0000   1.0000   1.0000   1.0000   1.0000
     1.0000   1.0000   1.0000   1.0000   1.0000   1.0000   1.0000   1.0000
     1.0000   1.0000   1.0000   1.0000   1.0000   1.0000   1.0000   1.0000
     1.0000   1.0000   1.0000   1.0000   1.0000   1.0000   1.0000   1.0000
     1.0000   1.0000   1.0000   1.0000   1.0000   1.0000   1.0000   1.0000
     1.0000   1.0000   1.0000   1.0000   1.0000   1.0000   1.0000   1.0000
     1.0000   1.0000   1.0000   1.0000   1.0000   1.0000   1.0000   1.0000
     1.0000   1.0000   1.0000   1.0000   1.0000   1.0000   1.0000   1.0000
     1.0000   1.0000   1.0000   1.0000   1.0000   1.0000   1.0000   1.0000
     1.0000   1.0000   1.0000   1.0000   1.0000   1.0000   1.0000   1.0000
     1.0082   0.5790   0.5228   0.3900   0.0000   0.0000   0.0000   0.0000
     0.0000   0.0000   0.0000   0.0000   0.0000   0.0000   0.0000   0.0000
     0.0000   0.0000   0.0000   0.0000   0.0000   0.0000   0.0000   0.0000

     the Fermi energy is    -0.8311 ev

!    total energy              =    -825.89698977 Ry
     Harris-Foulkes estimate   =    -825.89699055 Ry
     estimated scf accuracy    <       0.00000095 Ry

     The total energy is the sum of the following terms:

     one-electron contribution =   -2723.94044959 Ry
     hartree contribution      =    1406.77746085 Ry
     xc contribution           =    -259.59675973 Ry
     ewald contribution        =     750.86354126 Ry
     smearing contrib. (-TS)   =      -0.00078255 Ry

     convergence has been achieved in  46 iterations

     Writing output data file gr-12-baricentro.save/

     init_run     :     45.77s CPU     46.91s WALL (       1 calls)
     electrons    :   2349.81s CPU   2427.17s WALL (       1 calls)

     Called by init_run:
     wfcinit      :     21.50s CPU     21.64s WALL (       1 calls)
     wfcinit:atom :      0.02s CPU      0.04s WALL (       1 calls)
     wfcinit:wfcr :     21.33s CPU     21.40s WALL (       1 calls)
     potinit      :     11.09s CPU     11.48s WALL (       1 calls)
     hinit0       :      8.48s CPU      8.50s WALL (       1 calls)

     Called by electrons:
     c_bands      :   1379.50s CPU   1387.42s WALL (      46 calls)
     sum_band     :    478.36s CPU    505.92s WALL (      46 calls)
     v_of_rho     :    292.08s CPU    309.50s WALL (      47 calls)
     v_h          :      3.35s CPU      3.48s WALL (      47 calls)
     v_xc         :    288.72s CPU    306.02s WALL (      47 calls)
     newd         :    194.64s CPU    219.69s WALL (      47 calls)
     mix_rho      :     10.11s CPU     10.29s WALL (      46 calls)

     Called by c_bands:
     init_us_2    :      4.18s CPU      4.24s WALL (      93 calls)
     cegterg      :   1368.32s CPU   1376.18s WALL (      46 calls)

     Called by sum_band:
     sum_band:bec :      0.04s CPU      0.04s WALL (      46 calls)
     addusdens    :    289.60s CPU    315.70s WALL (      46 calls)

     Called by *egterg:
     h_psi        :    731.16s CPU    736.52s WALL (     129 calls)
     s_psi        :    243.86s CPU    244.06s WALL (     129 calls)
     g_psi        :      0.73s CPU      0.73s WALL (      82 calls)
     cdiaghg      :      7.49s CPU      7.50s WALL (     128 calls)
     cegterg:over :    158.60s CPU    158.69s WALL (      82 calls)
     cegterg:upda :     87.66s CPU     88.23s WALL (      82 calls)
     cegterg:last :     78.57s CPU     78.61s WALL (      47 calls)

     Called by h_psi:
     h_psi:pot    :    730.40s CPU    734.76s WALL (     129 calls)
     h_psi:calbec :    244.11s CPU    244.27s WALL (     129 calls)
     vloc_psi     :    241.84s CPU    245.95s WALL (     129 calls)
     add_vuspsi   :    244.44s CPU    244.53s WALL (     129 calls)

     General routines
     calbec       :    357.36s CPU    357.58s WALL (     175 calls)
     fft          :    165.84s CPU    172.37s WALL (    2959 calls)
     ffts         :      1.76s CPU      1.82s WALL (      93 calls)
     fftw         :    262.22s CPU    266.93s WALL (   31324 calls)
     interpolate  :      4.11s CPU      4.20s WALL (      47 calls)

     Parallel routines
     fft_scatt_xy :     75.07s CPU     75.96s WALL (   34376 calls)
     fft_scatt_yz :    147.91s CPU    156.04s WALL (   34376 calls)

     PWSCF        :  39m56.78s CPU  41m15.55s WALL


   This run was terminated on:  12:47:14  24Jul2022            

=------------------------------------------------------------------------------=
   JOB DONE.
=------------------------------------------------------------------------------=
