
     Program PWSCF v.6.4.1 starts on 24Jul2022 at 15:57: 2 

     This program is part of the open-source Quantum ESPRESSO suite
     for quantum simulation of materials; please cite
         "P. Giannozzi et al., J. Phys.:Condens. Matter 21 395502 (2009);
         "P. Giannozzi et al., J. Phys.:Condens. Matter 29 465901 (2017);
          URL http://www.quantum-espresso.org", 
     in publications or presentations arising from this work. More details at
     http://www.quantum-espresso.org/quote

     Parallel version (MPI), running on     6 processors

     MPI processes distributed on     1 nodes
     R & G space division:  proc/nbgrp/npool/nimage =       6
     Reading input from distance-2.0.in

     Current dimensions of program PWSCF are:
     Max number of different atomic species (ntypx) = 10
     Max number of k-points (npk) =  40000
     Max angular momentum in pseudopotentials (lmaxx) =  3

     IMPORTANT: XC functional enforced from input :
     Exchange-correlation      = RVV10 ( 1  4 13  4 3 0)
     Any further DFT definition will be discarded
     Please, verify this is what you really want

               file H.pbe-rrkjus.UPF: wavefunction(s)  1S renormalized
               file Mn.pbe-spn-rrkjus_psl.0.3.1.UPF: wavefunction(s)  3D renormalized

     Subspace diagonalization in iterative solution of the eigenvalue problem:
     a serial algorithm will be used


     Parallelization info
     --------------------
     sticks:   dense  smooth     PW     G-vecs:    dense   smooth      PW
     Min        3051    1746    432               270999   117096   14629
     Max        3053    1747    437               271001   117099   14630
     Sum       18313   10477   2611              1626001   702581   87777



     bravais-lattice index     =            4
     lattice parameter (alat)  =      23.2937  a.u.
     unit-cell volume          =    8879.8548 (a.u.)^3
     number of atoms/cell      =           52
     number of atomic types    =            3
     number of electrons       =       213.00
     number of Kohn-Sham states=          128
     kinetic-energy cutoff     =      70.0000  Ry
     charge density cutoff     =     490.0000  Ry
     convergence threshold     =      1.0E-06
     mixing beta               =       0.7000
     number of iterations used =            8  plain     mixing
     Exchange-correlation      = RVV10 ( 1  4 13  4 3 0)

     celldm(1)=  23.293684  celldm(2)=   0.000000  celldm(3)=   0.811261
     celldm(4)=   0.000000  celldm(5)=   0.000000  celldm(6)=   0.000000

     crystal axes: (cart. coord. in units of alat)
               a(1) = (   1.000000   0.000000   0.000000 )  
               a(2) = (  -0.500000   0.866025   0.000000 )  
               a(3) = (   0.000000   0.000000   0.811261 )  

     reciprocal axes: (cart. coord. in units 2 pi/alat)
               b(1) = (  1.000000  0.577350 -0.000000 )  
               b(2) = (  0.000000  1.154701  0.000000 )  
               b(3) = (  0.000000 -0.000000  1.232649 )  


     PseudoPot. # 1 for H  read from file:
     /home/cristian/Escritorio/Proyecto_Grafeno/pseudopotenciales/H.pbe-rrkjus.UPF
     MD5 check sum: 7cc9d459525c9a0585f487a71c3c9563
     Pseudo is Ultrasoft, Zval =  1.0
     Generated by new atomic code, or converted to UPF format
     Using radial grid of 1061 points,  2 beta functions with: 
                l(1) =   0
                l(2) =   0
     Q(r) pseudized with 0 coefficients 


     PseudoPot. # 2 for C  read from file:
     /home/cristian/Escritorio/Proyecto_Grafeno/pseudopotenciales/C.pbe-n-rrkjus_psl.1.0.0.UPF
     MD5 check sum: 1fdd950c42eb37d8afe3dd2f8d12311e
     Pseudo is Ultrasoft + core correction, Zval =  4.0
     Generated using "atomic" code by A. Dal Corso v.6.3MaX
     Using radial grid of 1073 points,  4 beta functions with: 
                l(1) =   0
                l(2) =   0
                l(3) =   1
                l(4) =   1
     Q(r) pseudized with 0 coefficients 


     PseudoPot. # 3 for Mn read from file:
     /home/cristian/Escritorio/Proyecto_Grafeno/pseudopotenciales/Mn.pbe-spn-rrkjus_psl.0.3.1.UPF
     MD5 check sum: e1cac159bdd2ba70c18e85765a5d4279
     Pseudo is Ultrasoft + core correction, Zval = 15.0
     Generated using "atomic" code by A. Dal Corso v.6.2.2
     Using radial grid of 1187 points,  6 beta functions with: 
                l(1) =   0
                l(2) =   0
                l(3) =   1
                l(4) =   1
                l(5) =   2
                l(6) =   2
     Q(r) pseudized with 0 coefficients 


     vdW kernel table read from file rVV10_kernel_table
     MD5 check sum: b8e2538accc0c0b3206b45ba4daaba6c

     atomic species   valence    mass     pseudopotential
        H              1.00     1.00794     H ( 1.00)
        C              4.00    12.01070     C ( 1.00)
        Mn            15.00    54.93804     Mn( 1.00)

     No symmetry found


                                    s                        frac. trans.

      isym =  1     identity                                     

 cryst.   s( 1) = (     1          0          0      )
                  (     0          1          0      )
                  (     0          0          1      )

 cart.    s( 1) = (  1.0000000  0.0000000  0.0000000 )
                  (  0.0000000  1.0000000  0.0000000 )
                  (  0.0000000  0.0000000  1.0000000 )


     point group C_1 (1)    
     there are  1 classes
     the character table:

       E    
A      1.00

     the symmetry operations in each class and the name of the first element:

     E        1
          identity                                               

   Cartesian axes

     site n.     atom                  positions (alat units)
         1           H   tau(   1) = (   0.2666667   0.4618802   0.1622522  )
         2           H   tau(   2) = (   0.2666667   0.4618802   0.2232649  )
         3           C   tau(   3) = (   0.0000000   0.0000000   0.0000000  )
         4           C   tau(   4) = (   0.0000000   0.1154701   0.0000000  )
         5           C   tau(   5) = (  -0.1000000   0.1732051   0.0000000  )
         6           C   tau(   6) = (  -0.1000000   0.2886751   0.0000000  )
         7           C   tau(   7) = (  -0.2000000   0.3464102   0.0000000  )
         8           C   tau(   8) = (  -0.2000000   0.4618802   0.0000000  )
         9           C   tau(   9) = (  -0.3000000   0.5196152   0.0000000  )
        10           C   tau(  10) = (  -0.3000000   0.6350853   0.0000000  )
        11           C   tau(  11) = (  -0.4000000   0.6928203   0.0000000  )
        12           C   tau(  12) = (  -0.4000000   0.8082904   0.0000000  )
        13           C   tau(  13) = (   0.2000000   0.0000000   0.0000000  )
        14           C   tau(  14) = (   0.2000000   0.1154701   0.0000000  )
        15           C   tau(  15) = (   0.1000000   0.1732051   0.0000000  )
        16           C   tau(  16) = (   0.1000000   0.2886751   0.0000000  )
        17           C   tau(  17) = (   0.0000000   0.3464102   0.0000000  )
        18           C   tau(  18) = (   0.0000000   0.4618802   0.0000000  )
        19           C   tau(  19) = (  -0.1000000   0.5196152   0.0000000  )
        20           C   tau(  20) = (  -0.1000000   0.6350853   0.0000000  )
        21           C   tau(  21) = (  -0.2000000   0.6928203   0.0000000  )
        22           C   tau(  22) = (  -0.2000000   0.8082904   0.0000000  )
        23           C   tau(  23) = (   0.4000000   0.0000000   0.0000000  )
        24           C   tau(  24) = (   0.4000000   0.1154701   0.0000000  )
        25           C   tau(  25) = (   0.3000000   0.1732051   0.0000000  )
        26           C   tau(  26) = (   0.3000000   0.2886751   0.0000000  )
        27           C   tau(  27) = (   0.2000000   0.3464102   0.0000000  )
        28           Mn  tau(  28) = (   0.2000000   0.4618802   0.0000000  )
        29           C   tau(  29) = (   0.1000000   0.5196152   0.0000000  )
        30           C   tau(  30) = (   0.1000000   0.6350853   0.0000000  )
        31           C   tau(  31) = (   0.0000000   0.6928203   0.0000000  )
        32           C   tau(  32) = (   0.0000000   0.8082904   0.0000000  )
        33           C   tau(  33) = (   0.6000000   0.0000000   0.0000000  )
        34           C   tau(  34) = (   0.6000000   0.1154701   0.0000000  )
        35           C   tau(  35) = (   0.5000000   0.1732051   0.0000000  )
        36           C   tau(  36) = (   0.5000000   0.2886751   0.0000000  )
        37           C   tau(  37) = (   0.4000000   0.3464102   0.0000000  )
        38           C   tau(  38) = (   0.4000000   0.4618802   0.0000000  )
        39           C   tau(  39) = (   0.3000000   0.5196152   0.0000000  )
        40           C   tau(  40) = (   0.3000000   0.6350853   0.0000000  )
        41           C   tau(  41) = (   0.2000000   0.6928203   0.0000000  )
        42           C   tau(  42) = (   0.2000000   0.8082904   0.0000000  )
        43           C   tau(  43) = (   0.8000000   0.0000000   0.0000000  )
        44           C   tau(  44) = (   0.8000000   0.1154701   0.0000000  )
        45           C   tau(  45) = (   0.7000000   0.1732051   0.0000000  )
        46           C   tau(  46) = (   0.7000000   0.2886751   0.0000000  )
        47           C   tau(  47) = (   0.6000000   0.3464102   0.0000000  )
        48           C   tau(  48) = (   0.6000000   0.4618802   0.0000000  )
        49           C   tau(  49) = (   0.5000000   0.5196152   0.0000000  )
        50           C   tau(  50) = (   0.5000000   0.6350853   0.0000000  )
        51           C   tau(  51) = (   0.4000000   0.6928203   0.0000000  )
        52           C   tau(  52) = (   0.4000000   0.8082904   0.0000000  )

   Crystallographic axes

     site n.     atom                  positions (cryst. coord.)
         1           H   tau(   1) = (  0.5333333  0.5333333  0.2000000  )
         2           H   tau(   2) = (  0.5333333  0.5333333  0.2752072  )
         3           C   tau(   3) = (  0.0000000  0.0000000  0.0000000  )
         4           C   tau(   4) = (  0.0666667  0.1333333  0.0000000  )
         5           C   tau(   5) = (  0.0000000  0.2000000  0.0000000  )
         6           C   tau(   6) = (  0.0666667  0.3333333  0.0000000  )
         7           C   tau(   7) = (  0.0000000  0.4000000  0.0000000  )
         8           C   tau(   8) = (  0.0666667  0.5333333  0.0000000  )
         9           C   tau(   9) = (  0.0000000  0.6000000  0.0000000  )
        10           C   tau(  10) = (  0.0666667  0.7333333  0.0000000  )
        11           C   tau(  11) = (  0.0000000  0.8000000  0.0000000  )
        12           C   tau(  12) = (  0.0666667  0.9333333  0.0000000  )
        13           C   tau(  13) = (  0.2000000  0.0000000  0.0000000  )
        14           C   tau(  14) = (  0.2666667  0.1333333  0.0000000  )
        15           C   tau(  15) = (  0.2000000  0.2000000  0.0000000  )
        16           C   tau(  16) = (  0.2666667  0.3333333  0.0000000  )
        17           C   tau(  17) = (  0.2000000  0.4000000  0.0000000  )
        18           C   tau(  18) = (  0.2666667  0.5333333  0.0000000  )
        19           C   tau(  19) = (  0.2000000  0.6000000  0.0000000  )
        20           C   tau(  20) = (  0.2666667  0.7333333  0.0000000  )
        21           C   tau(  21) = (  0.2000000  0.8000000  0.0000000  )
        22           C   tau(  22) = (  0.2666667  0.9333333  0.0000000  )
        23           C   tau(  23) = (  0.4000000  0.0000000  0.0000000  )
        24           C   tau(  24) = (  0.4666667  0.1333333  0.0000000  )
        25           C   tau(  25) = (  0.4000000  0.2000000  0.0000000  )
        26           C   tau(  26) = (  0.4666667  0.3333333  0.0000000  )
        27           C   tau(  27) = (  0.4000000  0.4000000  0.0000000  )
        28           Mn  tau(  28) = (  0.4666667  0.5333333  0.0000000  )
        29           C   tau(  29) = (  0.4000000  0.6000000  0.0000000  )
        30           C   tau(  30) = (  0.4666667  0.7333333  0.0000000  )
        31           C   tau(  31) = (  0.4000000  0.8000000  0.0000000  )
        32           C   tau(  32) = (  0.4666667  0.9333333  0.0000000  )
        33           C   tau(  33) = (  0.6000000  0.0000000  0.0000000  )
        34           C   tau(  34) = (  0.6666667  0.1333333  0.0000000  )
        35           C   tau(  35) = (  0.6000000  0.2000000  0.0000000  )
        36           C   tau(  36) = (  0.6666667  0.3333333  0.0000000  )
        37           C   tau(  37) = (  0.6000000  0.4000000  0.0000000  )
        38           C   tau(  38) = (  0.6666667  0.5333333  0.0000000  )
        39           C   tau(  39) = (  0.6000000  0.6000000  0.0000000  )
        40           C   tau(  40) = (  0.6666667  0.7333333  0.0000000  )
        41           C   tau(  41) = (  0.6000000  0.8000000  0.0000000  )
        42           C   tau(  42) = (  0.6666667  0.9333333  0.0000000  )
        43           C   tau(  43) = (  0.8000000  0.0000000  0.0000000  )
        44           C   tau(  44) = (  0.8666667  0.1333333  0.0000000  )
        45           C   tau(  45) = (  0.8000000  0.2000000  0.0000000  )
        46           C   tau(  46) = (  0.8666667  0.3333333  0.0000000  )
        47           C   tau(  47) = (  0.8000000  0.4000000  0.0000000  )
        48           C   tau(  48) = (  0.8666667  0.5333333  0.0000000  )
        49           C   tau(  49) = (  0.8000000  0.6000000  0.0000000  )
        50           C   tau(  50) = (  0.8666667  0.7333333  0.0000000  )
        51           C   tau(  51) = (  0.8000000  0.8000000  0.0000000  )
        52           C   tau(  52) = (  0.8666667  0.9333333  0.0000000  )

     number of k points=     1  Marzari-Vanderbilt smearing, width (Ry)=  0.0010
                       cart. coord. in units 2pi/alat
        k(    1) = (   0.0000000   0.0000000   0.0000000), wk =   2.0000000

                       cryst. coord.
        k(    1) = (   0.0000000   0.0000000   0.0000000), wk =   2.0000000

     Dense  grid:  1626001 G-vectors     FFT dimensions: ( 180, 180, 135)

     Smooth grid:   702581 G-vectors     FFT dimensions: ( 125, 125, 108)

     Dynamical RAM for                 wfc:      28.59 MB

     Dynamical RAM for     wfc (w. buffer):      28.59 MB

     Dynamical RAM for           str. fact:      12.41 MB

     Dynamical RAM for           local pot:       0.00 MB

     Dynamical RAM for          nlocal pot:      92.46 MB

     Dynamical RAM for                qrad:      19.73 MB

     Dynamical RAM for          rho,v,vnew:      29.46 MB

     Dynamical RAM for               rhoin:       9.82 MB

     Dynamical RAM for            rho*nmix:      66.16 MB

     Dynamical RAM for           G-vectors:      16.40 MB

     Dynamical RAM for          h,s,v(r/c):      12.00 MB

     Dynamical RAM for          <psi|beta>:       0.81 MB

     Dynamical RAM for                 psi:     114.35 MB

     Dynamical RAM for                hpsi:     114.35 MB

     Dynamical RAM for                spsi:     114.35 MB

     Dynamical RAM for      wfcinit/wfcrot:      93.90 MB

     Dynamical RAM for           addusdens:     971.75 MB

     Estimated static dynamical RAM per process >     320.00 MB

     Estimated max dynamical RAM per process >       1.26 GB

     Estimated total dynamical RAM >       7.57 GB

     Check: negative core charge=   -0.000002

     Initial potential from superposition of free atoms

     starting charge  212.80506, renormalised to  213.00000

     negative rho (up, down):  7.877E-05 0.000E+00


---------------------------------------------------------------------------------
Carrying out rVV10 run using the following parameters:
Nqs =      20    Nr_points =    1024   r_max =   100.000
b_value =  6.30000    beta =  0.00901
     q_mesh =  0.00010000  0.00030000  0.00058939  0.00100810
               0.00161396  0.00249058  0.00375900  0.00559430
               0.00824984  0.01209221  0.01765183  0.02569619
               0.03733578  0.05417739  0.07854596  0.11380545
               0.16482331  0.23864234  0.34545298  0.50000000

Gradients computed in Reciprocal space

---------------------------------------------------------------------------------


     Starting wfcs are  208 randomized atomic wfcs

     total cpu time spent up to now is       48.3 secs

     Self-consistent Calculation

     iteration #  1     ecut=    70.00 Ry     beta= 0.70
     Davidson diagonalization with overlap
     ethr =  1.00E-02,  avg # of iterations =  2.0

     negative rho (up, down):  1.562E-04 0.000E+00

     total cpu time spent up to now is      116.4 secs

     total energy              =    -822.20542728 Ry
     Harris-Foulkes estimate   =    -828.97455950 Ry
     estimated scf accuracy    <       9.60588241 Ry

     iteration #  2     ecut=    70.00 Ry     beta= 0.70
     Davidson diagonalization with overlap
     ethr =  4.51E-03,  avg # of iterations =  7.0

     negative rho (up, down):  1.931E-04 0.000E+00

     total cpu time spent up to now is      185.4 secs

     total energy              =    -814.55144916 Ry
     Harris-Foulkes estimate   =    -838.33630376 Ry
     estimated scf accuracy    <      95.16942483 Ry

     iteration #  3     ecut=    70.00 Ry     beta= 0.70
     Davidson diagonalization with overlap
     ethr =  4.51E-03,  avg # of iterations =  5.0

     negative rho (up, down):  2.414E-04 0.000E+00

     total cpu time spent up to now is      282.1 secs

     total energy              =    -824.91576308 Ry
     Harris-Foulkes estimate   =    -826.79641085 Ry
     estimated scf accuracy    <       7.63630324 Ry

     iteration #  4     ecut=    70.00 Ry     beta= 0.70
     Davidson diagonalization with overlap
     ethr =  3.59E-03,  avg # of iterations =  3.0

     negative rho (up, down):  2.808E-04 0.000E+00

     total cpu time spent up to now is      334.5 secs

     total energy              =    -825.56268340 Ry
     Harris-Foulkes estimate   =    -826.23957589 Ry
     estimated scf accuracy    <       1.85777268 Ry

     iteration #  5     ecut=    70.00 Ry     beta= 0.70
     Davidson diagonalization with overlap
     ethr =  8.72E-04,  avg # of iterations =  3.0

     negative rho (up, down):  3.072E-04 0.000E+00

     total cpu time spent up to now is      389.7 secs

     total energy              =    -825.86253140 Ry
     Harris-Foulkes estimate   =    -825.97136115 Ry
     estimated scf accuracy    <       0.52784888 Ry

     iteration #  6     ecut=    70.00 Ry     beta= 0.70
     Davidson diagonalization with overlap
     ethr =  2.48E-04,  avg # of iterations = 11.0

     negative rho (up, down):  3.432E-04 0.000E+00

     total cpu time spent up to now is      443.5 secs

     total energy              =    -825.87650480 Ry
     Harris-Foulkes estimate   =    -825.89811292 Ry
     estimated scf accuracy    <       0.07692357 Ry

     iteration #  7     ecut=    70.00 Ry     beta= 0.70
     Davidson diagonalization with overlap
     ethr =  3.61E-05,  avg # of iterations =  4.0

     negative rho (up, down):  3.988E-04 0.000E+00

     total cpu time spent up to now is      504.6 secs

     total energy              =    -825.87142860 Ry
     Harris-Foulkes estimate   =    -825.91377379 Ry
     estimated scf accuracy    <       0.27459207 Ry

     iteration #  8     ecut=    70.00 Ry     beta= 0.70
     Davidson diagonalization with overlap
     ethr =  3.61E-05,  avg # of iterations =  4.0

     negative rho (up, down):  4.411E-04 0.000E+00

     total cpu time spent up to now is      557.6 secs

     total energy              =    -825.87258410 Ry
     Harris-Foulkes estimate   =    -825.90594840 Ry
     estimated scf accuracy    <       0.36633988 Ry

     iteration #  9     ecut=    70.00 Ry     beta= 0.70
     Davidson diagonalization with overlap
     ethr =  3.61E-05,  avg # of iterations =  2.0

     negative rho (up, down):  4.555E-04 0.000E+00

     total cpu time spent up to now is      608.5 secs

     total energy              =    -825.87792477 Ry
     Harris-Foulkes estimate   =    -825.89557035 Ry
     estimated scf accuracy    <       0.14007372 Ry

     iteration # 10     ecut=    70.00 Ry     beta= 0.70
     Davidson diagonalization with overlap
     ethr =  3.61E-05,  avg # of iterations =  2.0

     negative rho (up, down):  5.401E-04 0.000E+00

     total cpu time spent up to now is      659.2 secs

     total energy              =    -825.88536161 Ry
     Harris-Foulkes estimate   =    -825.89428901 Ry
     estimated scf accuracy    <       0.11938324 Ry

     iteration # 11     ecut=    70.00 Ry     beta= 0.70
     Davidson diagonalization with overlap
     ethr =  3.61E-05,  avg # of iterations =  1.0

     negative rho (up, down):  5.965E-04 0.000E+00

     total cpu time spent up to now is      709.7 secs

     total energy              =    -825.88651612 Ry
     Harris-Foulkes estimate   =    -825.89359032 Ry
     estimated scf accuracy    <       0.05700123 Ry

     iteration # 12     ecut=    70.00 Ry     beta= 0.70
     Davidson diagonalization with overlap
     ethr =  2.68E-05,  avg # of iterations =  1.0

     negative rho (up, down):  5.915E-04 0.000E+00

     total cpu time spent up to now is      760.3 secs

     total energy              =    -825.88795328 Ry
     Harris-Foulkes estimate   =    -825.88899023 Ry
     estimated scf accuracy    <       0.01514282 Ry

     iteration # 13     ecut=    70.00 Ry     beta= 0.70
     Davidson diagonalization with overlap
     ethr =  7.11E-06,  avg # of iterations =  1.0

     negative rho (up, down):  6.063E-04 0.000E+00

     total cpu time spent up to now is      810.7 secs

     total energy              =    -825.88676413 Ry
     Harris-Foulkes estimate   =    -825.88884066 Ry
     estimated scf accuracy    <       0.03452488 Ry

     iteration # 14     ecut=    70.00 Ry     beta= 0.70
     Davidson diagonalization with overlap
     ethr =  7.11E-06,  avg # of iterations =  1.0

     negative rho (up, down):  6.301E-04 0.000E+00

     total cpu time spent up to now is      861.2 secs

     total energy              =    -825.88782850 Ry
     Harris-Foulkes estimate   =    -825.88912375 Ry
     estimated scf accuracy    <       0.08371207 Ry

     iteration # 15     ecut=    70.00 Ry     beta= 0.70
     Davidson diagonalization with overlap
     ethr =  7.11E-06,  avg # of iterations =  1.0

     negative rho (up, down):  6.166E-04 0.000E+00

     total cpu time spent up to now is      911.5 secs

     total energy              =    -825.88773309 Ry
     Harris-Foulkes estimate   =    -825.88842456 Ry
     estimated scf accuracy    <       0.01251212 Ry

     iteration # 16     ecut=    70.00 Ry     beta= 0.70
     Davidson diagonalization with overlap
     ethr =  5.87E-06,  avg # of iterations =  1.0

     negative rho (up, down):  6.280E-04 0.000E+00

     total cpu time spent up to now is      961.9 secs

     total energy              =    -825.88783888 Ry
     Harris-Foulkes estimate   =    -825.88805083 Ry
     estimated scf accuracy    <       0.00395704 Ry

     iteration # 17     ecut=    70.00 Ry     beta= 0.70
     Davidson diagonalization with overlap
     ethr =  1.86E-06,  avg # of iterations =  1.0

     negative rho (up, down):  6.758E-04 0.000E+00

     total cpu time spent up to now is     1012.3 secs

     total energy              =    -825.88762083 Ry
     Harris-Foulkes estimate   =    -825.88791354 Ry
     estimated scf accuracy    <       0.00154627 Ry

     iteration # 18     ecut=    70.00 Ry     beta= 0.70
     Davidson diagonalization with overlap
     ethr =  7.26E-07,  avg # of iterations =  3.0

     negative rho (up, down):  6.779E-04 0.000E+00

     total cpu time spent up to now is     1066.5 secs

     total energy              =    -825.88750266 Ry
     Harris-Foulkes estimate   =    -825.88844864 Ry
     estimated scf accuracy    <       0.05475509 Ry

     iteration # 19     ecut=    70.00 Ry     beta= 0.70
     Davidson diagonalization with overlap
     ethr =  7.26E-07,  avg # of iterations =  2.0

     negative rho (up, down):  6.712E-04 0.000E+00

     total cpu time spent up to now is     1117.0 secs

     total energy              =    -825.88775341 Ry
     Harris-Foulkes estimate   =    -825.88791506 Ry
     estimated scf accuracy    <       0.01636047 Ry

     iteration # 20     ecut=    70.00 Ry     beta= 0.70
     Davidson diagonalization with overlap
     ethr =  7.26E-07,  avg # of iterations =  1.0

     negative rho (up, down):  6.685E-04 0.000E+00

     total cpu time spent up to now is     1167.4 secs

     total energy              =    -825.88728847 Ry
     Harris-Foulkes estimate   =    -825.88789218 Ry
     estimated scf accuracy    <       0.02513347 Ry

     iteration # 21     ecut=    70.00 Ry     beta= 0.70
     Davidson diagonalization with overlap
     ethr =  7.26E-07,  avg # of iterations =  2.0

     negative rho (up, down):  6.645E-04 0.000E+00

     total cpu time spent up to now is     1218.2 secs

     total energy              =    -825.88699331 Ry
     Harris-Foulkes estimate   =    -825.88861300 Ry
     estimated scf accuracy    <       0.03506776 Ry

     iteration # 22     ecut=    70.00 Ry     beta= 0.70
     Davidson diagonalization with overlap
     ethr =  7.26E-07,  avg # of iterations =  3.0

     negative rho (up, down):  6.659E-04 0.000E+00

     total cpu time spent up to now is     1269.5 secs

     total energy              =    -825.88765754 Ry
     Harris-Foulkes estimate   =    -825.88782960 Ry
     estimated scf accuracy    <       0.00536706 Ry

     iteration # 23     ecut=    70.00 Ry     beta= 0.70
     Davidson diagonalization with overlap
     ethr =  7.26E-07,  avg # of iterations =  2.0

     negative rho (up, down):  6.700E-04 0.000E+00

     total cpu time spent up to now is     1320.1 secs

     total energy              =    -825.88771980 Ry
     Harris-Foulkes estimate   =    -825.88774832 Ry
     estimated scf accuracy    <       0.00049520 Ry

     iteration # 24     ecut=    70.00 Ry     beta= 0.70
     Davidson diagonalization with overlap
     ethr =  2.32E-07,  avg # of iterations =  2.0

     negative rho (up, down):  6.696E-04 0.000E+00

     total cpu time spent up to now is     1371.0 secs

     total energy              =    -825.88768880 Ry
     Harris-Foulkes estimate   =    -825.88776751 Ry
     estimated scf accuracy    <       0.00356311 Ry

     iteration # 25     ecut=    70.00 Ry     beta= 0.70
     Davidson diagonalization with overlap
     ethr =  2.32E-07,  avg # of iterations =  1.0

     negative rho (up, down):  6.700E-04 0.000E+00

     total cpu time spent up to now is     1421.4 secs

     total energy              =    -825.88771993 Ry
     Harris-Foulkes estimate   =    -825.88774210 Ry
     estimated scf accuracy    <       0.00088077 Ry

     iteration # 26     ecut=    70.00 Ry     beta= 0.70
     Davidson diagonalization with overlap
     ethr =  2.32E-07,  avg # of iterations =  1.0

     negative rho (up, down):  6.704E-04 0.000E+00

     total cpu time spent up to now is     1472.0 secs

     total energy              =    -825.88771775 Ry
     Harris-Foulkes estimate   =    -825.88773913 Ry
     estimated scf accuracy    <       0.00068110 Ry

     iteration # 27     ecut=    70.00 Ry     beta= 0.70
     Davidson diagonalization with overlap
     ethr =  2.32E-07,  avg # of iterations =  1.0

     negative rho (up, down):  6.708E-04 0.000E+00

     total cpu time spent up to now is     1522.3 secs

     total energy              =    -825.88771329 Ry
     Harris-Foulkes estimate   =    -825.88772823 Ry
     estimated scf accuracy    <       0.00020727 Ry

     iteration # 28     ecut=    70.00 Ry     beta= 0.70
     Davidson diagonalization with overlap
     ethr =  9.73E-08,  avg # of iterations =  2.0

     negative rho (up, down):  6.708E-04 0.000E+00

     total cpu time spent up to now is     1573.0 secs

     total energy              =    -825.88771443 Ry
     Harris-Foulkes estimate   =    -825.88771728 Ry
     estimated scf accuracy    <       0.00118988 Ry

     iteration # 29     ecut=    70.00 Ry     beta= 0.70
     Davidson diagonalization with overlap
     ethr =  9.73E-08,  avg # of iterations =  1.0

     negative rho (up, down):  6.713E-04 0.000E+00

     total cpu time spent up to now is     1623.5 secs

     total energy              =    -825.88770451 Ry
     Harris-Foulkes estimate   =    -825.88771535 Ry
     estimated scf accuracy    <       0.00099939 Ry

     iteration # 30     ecut=    70.00 Ry     beta= 0.70
     Davidson diagonalization with overlap
     ethr =  9.73E-08,  avg # of iterations =  2.0

     negative rho (up, down):  6.712E-04 0.000E+00

     total cpu time spent up to now is     1674.1 secs

     total energy              =    -825.88768761 Ry
     Harris-Foulkes estimate   =    -825.88773262 Ry
     estimated scf accuracy    <       0.00120499 Ry

     iteration # 31     ecut=    70.00 Ry     beta= 0.70
     Davidson diagonalization with overlap
     ethr =  9.73E-08,  avg # of iterations =  1.0

     negative rho (up, down):  6.710E-04 0.000E+00

     total cpu time spent up to now is     1724.5 secs

     total energy              =    -825.88767683 Ry
     Harris-Foulkes estimate   =    -825.88773048 Ry
     estimated scf accuracy    <       0.00138016 Ry

     iteration # 32     ecut=    70.00 Ry     beta= 0.70
     Davidson diagonalization with overlap
     ethr =  9.73E-08,  avg # of iterations =  2.0

     negative rho (up, down):  6.709E-04 0.000E+00

     total cpu time spent up to now is     1776.4 secs

     total energy              =    -825.88764022 Ry
     Harris-Foulkes estimate   =    -825.88774648 Ry
     estimated scf accuracy    <       0.00467785 Ry

     iteration # 33     ecut=    70.00 Ry     beta= 0.70
     Davidson diagonalization with overlap
     ethr =  9.73E-08,  avg # of iterations =  2.0

     negative rho (up, down):  6.708E-04 0.000E+00

     total cpu time spent up to now is     1827.9 secs

     total energy              =    -825.88771426 Ry
     Harris-Foulkes estimate   =    -825.88771588 Ry
     estimated scf accuracy    <       0.00037667 Ry

     iteration # 34     ecut=    70.00 Ry     beta= 0.70
     Davidson diagonalization with overlap
     ethr =  9.73E-08,  avg # of iterations =  1.0

     negative rho (up, down):  6.712E-04 0.000E+00

     total cpu time spent up to now is     1878.2 secs

     total energy              =    -825.88768436 Ry
     Harris-Foulkes estimate   =    -825.88771834 Ry
     estimated scf accuracy    <       0.00045617 Ry

     iteration # 35     ecut=    70.00 Ry     beta= 0.70
     Davidson diagonalization with overlap
     ethr =  9.73E-08,  avg # of iterations =  3.0

     negative rho (up, down):  6.708E-04 0.000E+00

     total cpu time spent up to now is     1931.4 secs

     total energy              =    -825.88705064 Ry
     Harris-Foulkes estimate   =    -825.88811433 Ry
     estimated scf accuracy    <       0.11714608 Ry

     iteration # 36     ecut=    70.00 Ry     beta= 0.70
     Davidson diagonalization with overlap
     ethr =  9.73E-08,  avg # of iterations =  3.0

     negative rho (up, down):  6.709E-04 0.000E+00

     total cpu time spent up to now is     1985.3 secs

     total energy              =    -825.88764436 Ry
     Harris-Foulkes estimate   =    -825.88773703 Ry
     estimated scf accuracy    <       0.00121692 Ry

     iteration # 37     ecut=    70.00 Ry     beta= 0.70
     Davidson diagonalization with overlap
     ethr =  9.73E-08,  avg # of iterations =  3.0

     negative rho (up, down):  6.712E-04 0.000E+00

     total cpu time spent up to now is     2040.0 secs

     total energy              =    -825.88758947 Ry
     Harris-Foulkes estimate   =    -825.88771773 Ry
     estimated scf accuracy    <       0.00241008 Ry

     iteration # 38     ecut=    70.00 Ry     beta= 0.70
     Davidson diagonalization with overlap
     ethr =  9.73E-08,  avg # of iterations =  3.0

     negative rho (up, down):  6.711E-04 0.000E+00

     total cpu time spent up to now is     2095.9 secs

     total energy              =    -825.88740635 Ry
     Harris-Foulkes estimate   =    -825.88771879 Ry
     estimated scf accuracy    <       0.00548707 Ry

     iteration # 39     ecut=    70.00 Ry     beta= 0.70
     Davidson diagonalization with overlap
     ethr =  9.73E-08,  avg # of iterations =  3.0

     negative rho (up, down):  6.716E-04 0.000E+00

     total cpu time spent up to now is     2157.5 secs

     total energy              =    -825.88697557 Ry
     Harris-Foulkes estimate   =    -825.88815870 Ry
     estimated scf accuracy    <       0.03315071 Ry

     iteration # 40     ecut=    70.00 Ry     beta= 0.70
     Davidson diagonalization with overlap
     ethr =  9.73E-08,  avg # of iterations =  4.0

     negative rho (up, down):  6.714E-04 0.000E+00

     total cpu time spent up to now is     2216.2 secs

     total energy              =    -825.88767603 Ry
     Harris-Foulkes estimate   =    -825.88769621 Ry
     estimated scf accuracy    <       0.00091763 Ry

     iteration # 41     ecut=    70.00 Ry     beta= 0.70
     Davidson diagonalization with overlap
     ethr =  9.73E-08,  avg # of iterations =  1.0

     negative rho (up, down):  6.712E-04 0.000E+00

     total cpu time spent up to now is     2266.9 secs

     total energy              =    -825.88765964 Ry
     Harris-Foulkes estimate   =    -825.88769375 Ry
     estimated scf accuracy    <       0.00110995 Ry

     iteration # 42     ecut=    70.00 Ry     beta= 0.70
     Davidson diagonalization with overlap
     ethr =  9.73E-08,  avg # of iterations =  1.0

     negative rho (up, down):  6.712E-04 0.000E+00

     total cpu time spent up to now is     2317.5 secs

     total energy              =    -825.88765273 Ry
     Harris-Foulkes estimate   =    -825.88768081 Ry
     estimated scf accuracy    <       0.00155634 Ry

     iteration # 43     ecut=    70.00 Ry     beta= 0.70
     Davidson diagonalization with overlap
     ethr =  9.73E-08,  avg # of iterations =  1.0

     negative rho (up, down):  6.711E-04 0.000E+00

     total cpu time spent up to now is     2367.9 secs

     total energy              =    -825.88764046 Ry
     Harris-Foulkes estimate   =    -825.88766761 Ry
     estimated scf accuracy    <       0.00067874 Ry

     iteration # 44     ecut=    70.00 Ry     beta= 0.70
     Davidson diagonalization with overlap
     ethr =  9.73E-08,  avg # of iterations =  1.0

     negative rho (up, down):  6.711E-04 0.000E+00

     total cpu time spent up to now is     2418.2 secs

     total energy              =    -825.88762371 Ry
     Harris-Foulkes estimate   =    -825.88764396 Ry
     estimated scf accuracy    <       0.00043883 Ry

     iteration # 45     ecut=    70.00 Ry     beta= 0.70
     Davidson diagonalization with overlap
     ethr =  9.73E-08,  avg # of iterations =  1.0

     negative rho (up, down):  6.711E-04 0.000E+00

     total cpu time spent up to now is     2468.7 secs

     total energy              =    -825.88762524 Ry
     Harris-Foulkes estimate   =    -825.88763074 Ry
     estimated scf accuracy    <       0.00021722 Ry

     iteration # 46     ecut=    70.00 Ry     beta= 0.70
     Davidson diagonalization with overlap
     ethr =  9.73E-08,  avg # of iterations =  1.0

     negative rho (up, down):  6.712E-04 0.000E+00

     total cpu time spent up to now is     2519.1 secs

     total energy              =    -825.88760159 Ry
     Harris-Foulkes estimate   =    -825.88765180 Ry
     estimated scf accuracy    <       0.00150212 Ry

     iteration # 47     ecut=    70.00 Ry     beta= 0.70
     Davidson diagonalization with overlap
     ethr =  9.73E-08,  avg # of iterations =  1.0

     negative rho (up, down):  6.712E-04 0.000E+00

     total cpu time spent up to now is     2569.6 secs

     total energy              =    -825.88762035 Ry
     Harris-Foulkes estimate   =    -825.88762936 Ry
     estimated scf accuracy    <       0.00013367 Ry

     iteration # 48     ecut=    70.00 Ry     beta= 0.70
     Davidson diagonalization with overlap
     ethr =  6.28E-08,  avg # of iterations =  2.0

     negative rho (up, down):  6.712E-04 0.000E+00

     total cpu time spent up to now is     2620.6 secs

     total energy              =    -825.88759547 Ry
     Harris-Foulkes estimate   =    -825.88766051 Ry
     estimated scf accuracy    <       0.00186082 Ry

     iteration # 49     ecut=    70.00 Ry     beta= 0.70
     Davidson diagonalization with overlap
     ethr =  6.28E-08,  avg # of iterations =  2.0

     negative rho (up, down):  6.712E-04 0.000E+00

     total cpu time spent up to now is     2671.2 secs

     total energy              =    -825.88762133 Ry
     Harris-Foulkes estimate   =    -825.88763264 Ry
     estimated scf accuracy    <       0.00037272 Ry

     iteration # 50     ecut=    70.00 Ry     beta= 0.70
     Davidson diagonalization with overlap
     ethr =  6.28E-08,  avg # of iterations =  1.0

     negative rho (up, down):  6.712E-04 0.000E+00

     total cpu time spent up to now is     2721.7 secs

     total energy              =    -825.88762646 Ry
     Harris-Foulkes estimate   =    -825.88762866 Ry
     estimated scf accuracy    <       0.00008517 Ry

     iteration # 51     ecut=    70.00 Ry     beta= 0.70
     Davidson diagonalization with overlap
     ethr =  4.00E-08,  avg # of iterations =  1.0

     negative rho (up, down):  6.712E-04 0.000E+00

     total cpu time spent up to now is     2772.1 secs

     total energy              =    -825.88762643 Ry
     Harris-Foulkes estimate   =    -825.88762846 Ry
     estimated scf accuracy    <       0.00005803 Ry

     iteration # 52     ecut=    70.00 Ry     beta= 0.70
     Davidson diagonalization with overlap
     ethr =  2.72E-08,  avg # of iterations =  1.0

     negative rho (up, down):  6.712E-04 0.000E+00

     total cpu time spent up to now is     2822.8 secs

     total energy              =    -825.88762657 Ry
     Harris-Foulkes estimate   =    -825.88762781 Ry
     estimated scf accuracy    <       0.00001126 Ry

     iteration # 53     ecut=    70.00 Ry     beta= 0.70
     Davidson diagonalization with overlap
     ethr =  5.29E-09,  avg # of iterations =  1.0

     negative rho (up, down):  6.712E-04 0.000E+00

     total cpu time spent up to now is     2873.2 secs

     total energy              =    -825.88762638 Ry
     Harris-Foulkes estimate   =    -825.88762817 Ry
     estimated scf accuracy    <       0.00007704 Ry

     iteration # 54     ecut=    70.00 Ry     beta= 0.70
     Davidson diagonalization with overlap
     ethr =  5.29E-09,  avg # of iterations =  1.0

     negative rho (up, down):  6.712E-04 0.000E+00

     total cpu time spent up to now is     2923.7 secs

     total energy              =    -825.88762717 Ry
     Harris-Foulkes estimate   =    -825.88762768 Ry
     estimated scf accuracy    <       0.00002821 Ry

     iteration # 55     ecut=    70.00 Ry     beta= 0.70
     Davidson diagonalization with overlap
     ethr =  5.29E-09,  avg # of iterations =  1.0

     negative rho (up, down):  6.712E-04 0.000E+00

     total cpu time spent up to now is     2974.0 secs

     total energy              =    -825.88762709 Ry
     Harris-Foulkes estimate   =    -825.88762762 Ry
     estimated scf accuracy    <       0.00000677 Ry

     iteration # 56     ecut=    70.00 Ry     beta= 0.70
     Davidson diagonalization with overlap
     ethr =  3.18E-09,  avg # of iterations =  2.0

     negative rho (up, down):  6.712E-04 0.000E+00

     total cpu time spent up to now is     3024.6 secs

     total energy              =    -825.88762612 Ry
     Harris-Foulkes estimate   =    -825.88762872 Ry
     estimated scf accuracy    <       0.00007725 Ry

     iteration # 57     ecut=    70.00 Ry     beta= 0.70
     Davidson diagonalization with overlap
     ethr =  3.18E-09,  avg # of iterations =  1.0

     negative rho (up, down):  6.712E-04 0.000E+00

     total cpu time spent up to now is     3075.0 secs

     End of self-consistent calculation

          k = 0.0000 0.0000 0.0000 ( 87777 PWs)   bands (ev):

   -80.1161 -49.7547 -49.7457 -48.3671 -19.7137 -18.8749 -18.8684 -18.7869
   -18.7845 -18.7817 -18.4437 -17.0254 -17.0242 -17.0173 -16.9328 -16.9314
   -16.6306 -16.1739 -16.1706 -16.0725 -16.0204 -16.0137 -15.3371 -14.0643
   -14.0575 -13.9910 -13.9427 -13.9418 -13.3101 -13.0171 -13.0136 -12.9842
   -12.7001 -12.6961 -12.2577 -11.7965 -11.7916 -11.6100 -11.3451 -11.3406
   -10.4356  -9.6299  -9.6269  -9.3989  -9.2587  -9.2582  -9.1715  -9.1407
    -9.1403  -9.1312  -8.6619  -8.6513  -8.1379  -8.1200  -8.1009  -7.9894
    -7.7849  -7.6935  -7.3765  -7.3711  -7.1415  -7.1008  -6.9728  -6.8607
    -6.8586  -6.7606  -6.7565  -6.7288  -6.6759  -6.5063  -6.5033  -6.4851
    -6.4799  -6.4755  -6.4317  -6.2554  -5.5455  -5.4765  -5.4705  -5.4663
    -5.2546  -5.2529  -4.9337  -4.8815  -4.8412  -4.6732  -4.6471  -4.6438
    -4.3075  -4.1479  -4.1375  -4.1263  -4.1180  -3.7797  -3.7775  -3.7080
    -3.6216  -3.6189  -3.0655  -2.6194  -2.6159  -1.7812  -1.7485  -1.7480
    -0.8349  -0.8284  -0.8243  -0.8106   1.0034   1.0188   1.0221   1.6683
     1.6735   1.6853   2.5393   2.8570   2.8628   2.9204   3.0462   3.0812
     3.5290   3.5617   3.5733   3.7018   3.7172   3.7978   3.8028   3.8194

     occupation numbers 
     1.0000   1.0000   1.0000   1.0000   1.0000   1.0000   1.0000   1.0000
     1.0000   1.0000   1.0000   1.0000   1.0000   1.0000   1.0000   1.0000
     1.0000   1.0000   1.0000   1.0000   1.0000   1.0000   1.0000   1.0000
     1.0000   1.0000   1.0000   1.0000   1.0000   1.0000   1.0000   1.0000
     1.0000   1.0000   1.0000   1.0000   1.0000   1.0000   1.0000   1.0000
     1.0000   1.0000   1.0000   1.0000   1.0000   1.0000   1.0000   1.0000
     1.0000   1.0000   1.0000   1.0000   1.0000   1.0000   1.0000   1.0000
     1.0000   1.0000   1.0000   1.0000   1.0000   1.0000   1.0000   1.0000
     1.0000   1.0000   1.0000   1.0000   1.0000   1.0000   1.0000   1.0000
     1.0000   1.0000   1.0000   1.0000   1.0000   1.0000   1.0000   1.0000
     1.0000   1.0000   1.0000   1.0000   1.0000   1.0000   1.0000   1.0000
     1.0000   1.0000   1.0000   1.0000   1.0000   1.0000   1.0000   1.0000
     1.0000   1.0000   1.0000   1.0000   1.0000   1.0000   1.0000   1.0000
     1.0372   0.8054   0.5901   0.0674   0.0000   0.0000   0.0000   0.0000
     0.0000   0.0000   0.0000   0.0000   0.0000   0.0000   0.0000   0.0000
     0.0000   0.0000   0.0000   0.0000   0.0000   0.0000   0.0000   0.0000

     the Fermi energy is    -0.8208 ev

!    total energy              =    -825.88762721 Ry
     Harris-Foulkes estimate   =    -825.88762740 Ry
     estimated scf accuracy    <       0.00000023 Ry

     The total energy is the sum of the following terms:

     one-electron contribution =   -2738.67501615 Ry
     hartree contribution      =    1414.35036571 Ry
     xc contribution           =    -259.66012788 Ry
     ewald contribution        =     758.09746446 Ry
     smearing contrib. (-TS)   =      -0.00031334 Ry

     convergence has been achieved in  57 iterations

     Writing output data file gr-12-baricentro.save/

     init_run     :     46.06s CPU     47.21s WALL (       1 calls)
     electrons    :   2931.76s CPU   3026.72s WALL (       1 calls)

     Called by init_run:
     wfcinit      :     21.44s CPU     21.60s WALL (       1 calls)
     wfcinit:atom :      0.02s CPU      0.05s WALL (       1 calls)
     wfcinit:wfcr :     21.25s CPU     21.34s WALL (       1 calls)
     potinit      :     11.11s CPU     11.55s WALL (       1 calls)
     hinit0       :      8.55s CPU      8.59s WALL (       1 calls)

     Called by electrons:
     c_bands      :   1726.82s CPU   1736.75s WALL (      57 calls)
     sum_band     :    594.70s CPU    627.34s WALL (      57 calls)
     v_of_rho     :    361.33s CPU    383.05s WALL (      58 calls)
     v_h          :      4.21s CPU      4.34s WALL (      58 calls)
     v_xc         :    357.12s CPU    378.71s WALL (      58 calls)
     newd         :    239.92s CPU    271.00s WALL (      58 calls)
     mix_rho      :     12.67s CPU     12.92s WALL (      57 calls)

     Called by c_bands:
     init_us_2    :      5.24s CPU      5.30s WALL (     115 calls)
     cegterg      :   1713.94s CPU   1723.78s WALL (      57 calls)

     Called by sum_band:
     sum_band:bec :      0.05s CPU      0.05s WALL (      57 calls)
     addusdens    :    366.00s CPU    397.03s WALL (      57 calls)

     Called by *egterg:
     h_psi        :    912.59s CPU    919.53s WALL (     176 calls)
     s_psi        :    304.62s CPU    304.78s WALL (     176 calls)
     g_psi        :      0.91s CPU      0.92s WALL (     118 calls)
     cdiaghg      :     10.61s CPU     10.62s WALL (     175 calls)
     cegterg:over :    197.78s CPU    197.90s WALL (     118 calls)
     cegterg:upda :    112.40s CPU    113.09s WALL (     118 calls)
     cegterg:last :     97.59s CPU     97.62s WALL (      58 calls)

     Called by h_psi:
     h_psi:pot    :    911.58s CPU    917.32s WALL (     176 calls)
     h_psi:calbec :    304.20s CPU    304.36s WALL (     176 calls)
     vloc_psi     :    302.66s CPU    308.14s WALL (     176 calls)
     add_vuspsi   :    304.72s CPU    304.82s WALL (     176 calls)

     General routines
     calbec       :    444.74s CPU    444.97s WALL (     233 calls)
     fft          :    199.63s CPU    207.59s WALL (    3652 calls)
     ffts         :      2.12s CPU      2.20s WALL (     115 calls)
     fftw         :    326.69s CPU    332.89s WALL (   38968 calls)
     interpolate  :      5.00s CPU      5.18s WALL (      58 calls)

     Parallel routines
     fft_scatt_xy :     94.44s CPU     95.62s WALL (   42735 calls)
     fft_scatt_yz :    175.01s CPU    185.11s WALL (   42735 calls)

     PWSCF        :  49m39.08s CPU  51m15.42s WALL


   This run was terminated on:  16:48:18  24Jul2022            

=------------------------------------------------------------------------------=
   JOB DONE.
=------------------------------------------------------------------------------=
