
     Program PWSCF v.6.4.1 starts on 21Jul2022 at  7:53:22 

     This program is part of the open-source Quantum ESPRESSO suite
     for quantum simulation of materials; please cite
         "P. Giannozzi et al., J. Phys.:Condens. Matter 21 395502 (2009);
         "P. Giannozzi et al., J. Phys.:Condens. Matter 29 465901 (2017);
          URL http://www.quantum-espresso.org", 
     in publications or presentations arising from this work. More details at
     http://www.quantum-espresso.org/quote

     Parallel version (MPI), running on     6 processors

     MPI processes distributed on     1 nodes
     R & G space division:  proc/nbgrp/npool/nimage =       6
     Reading input from distance-2.4.in

     Current dimensions of program PWSCF are:
     Max number of different atomic species (ntypx) = 10
     Max number of k-points (npk) =  40000
     Max angular momentum in pseudopotentials (lmaxx) =  3

     IMPORTANT: XC functional enforced from input :
     Exchange-correlation      = RVV10 ( 1  4 13  4 3 0)
     Any further DFT definition will be discarded
     Please, verify this is what you really want

               file H.pbe-rrkjus.UPF: wavefunction(s)  1S renormalized
               file V.pbe-spnl-rrkjus_psl.1.0.0.UPF: wavefunction(s)  3P 3D renormalized

     Subspace diagonalization in iterative solution of the eigenvalue problem:
     a serial algorithm will be used


     Parallelization info
     --------------------
     sticks:   dense  smooth     PW     G-vecs:    dense   smooth      PW
     Min        3051    1746    432               270999   117096   14629
     Max        3053    1747    437               271001   117099   14630
     Sum       18313   10477   2611              1626001   702581   87777



     bravais-lattice index     =            4
     lattice parameter (alat)  =      23.2937  a.u.
     unit-cell volume          =    8879.8548 (a.u.)^3
     number of atoms/cell      =           52
     number of atomic types    =            3
     number of electrons       =       211.00
     number of Kohn-Sham states=          127
     kinetic-energy cutoff     =      70.0000  Ry
     charge density cutoff     =     490.0000  Ry
     convergence threshold     =      1.0E-06
     mixing beta               =       0.7000
     number of iterations used =            8  plain     mixing
     Exchange-correlation      = RVV10 ( 1  4 13  4 3 0)

     celldm(1)=  23.293684  celldm(2)=   0.000000  celldm(3)=   0.811261
     celldm(4)=   0.000000  celldm(5)=   0.000000  celldm(6)=   0.000000

     crystal axes: (cart. coord. in units of alat)
               a(1) = (   1.000000   0.000000   0.000000 )  
               a(2) = (  -0.500000   0.866025   0.000000 )  
               a(3) = (   0.000000   0.000000   0.811261 )  

     reciprocal axes: (cart. coord. in units 2 pi/alat)
               b(1) = (  1.000000  0.577350 -0.000000 )  
               b(2) = (  0.000000  1.154701  0.000000 )  
               b(3) = (  0.000000 -0.000000  1.232649 )  


     PseudoPot. # 1 for H  read from file:
     /home/cristian/Escritorio/Proyecto_Grafeno/pseudopotenciales/H.pbe-rrkjus.UPF
     MD5 check sum: 7cc9d459525c9a0585f487a71c3c9563
     Pseudo is Ultrasoft, Zval =  1.0
     Generated by new atomic code, or converted to UPF format
     Using radial grid of 1061 points,  2 beta functions with: 
                l(1) =   0
                l(2) =   0
     Q(r) pseudized with 0 coefficients 


     PseudoPot. # 2 for C  read from file:
     /home/cristian/Escritorio/Proyecto_Grafeno/pseudopotenciales/C.pbe-n-rrkjus_psl.1.0.0.UPF
     MD5 check sum: 1fdd950c42eb37d8afe3dd2f8d12311e
     Pseudo is Ultrasoft + core correction, Zval =  4.0
     Generated using "atomic" code by A. Dal Corso v.6.3MaX
     Using radial grid of 1073 points,  4 beta functions with: 
                l(1) =   0
                l(2) =   0
                l(3) =   1
                l(4) =   1
     Q(r) pseudized with 0 coefficients 


     PseudoPot. # 3 for V  read from file:
     /home/cristian/Escritorio/Proyecto_Grafeno/pseudopotenciales/V.pbe-spnl-rrkjus_psl.1.0.0.UPF
     MD5 check sum: 79b3eb63147daf0b665d9f1bcc691206
     Pseudo is Ultrasoft + core correction, Zval = 13.0
     Generated using "atomic" code by A. Dal Corso v.6.2.2
     Using radial grid of 1181 points,  6 beta functions with: 
                l(1) =   0
                l(2) =   0
                l(3) =   1
                l(4) =   1
                l(5) =   2
                l(6) =   2
     Q(r) pseudized with 0 coefficients 


     vdW kernel table read from file rVV10_kernel_table
     MD5 check sum: b8e2538accc0c0b3206b45ba4daaba6c

     atomic species   valence    mass     pseudopotential
        H              1.00     1.00794     H ( 1.00)
        C              4.00    12.01070     C ( 1.00)
        V             13.00    50.94150     V ( 1.00)

      2 Sym. Ops. (no inversion) found


                                    s                        frac. trans.

      isym =  1     identity                                     

 cryst.   s( 1) = (     1          0          0      )
                  (     0          1          0      )
                  (     0          0          1      )

 cart.    s( 1) = (  1.0000000  0.0000000  0.0000000 )
                  (  0.0000000  1.0000000  0.0000000 )
                  (  0.0000000  0.0000000  1.0000000 )


      isym =  2     inv. 180 deg rotation - cryst. axis [1,1,0]  

 cryst.   s( 2) = (     0         -1          0      )
                  (    -1          0          0      )
                  (     0          0          1      )

 cart.    s( 2) = (  0.5000000 -0.8660254  0.0000000 )
                  ( -0.8660254 -0.5000000  0.0000000 )
                  (  0.0000000  0.0000000  1.0000000 )


     point group C_s (m)    
     there are  2 classes
     the character table:

       E     s    
A'     1.00  1.00
A''    1.00 -1.00

     the symmetry operations in each class and the name of the first element:

     E        1
          identity                                               
     s        2
          inv. 180 deg rotation - cryst. axis [1,1,0]            

   Cartesian axes

     site n.     atom                  positions (alat units)
         1           H   tau(   1) = (   0.2500000   0.4330127   0.1947027  )
         2           H   tau(   2) = (   0.2500000   0.4330127   0.2557154  )
         3           C   tau(   3) = (   0.0000000   0.0000000   0.0000000  )
         4           C   tau(   4) = (   0.0000000   0.1154701   0.0000000  )
         5           C   tau(   5) = (  -0.1000000   0.1732051   0.0000000  )
         6           C   tau(   6) = (  -0.1000000   0.2886751   0.0000000  )
         7           C   tau(   7) = (  -0.2000000   0.3464102   0.0000000  )
         8           C   tau(   8) = (  -0.2000000   0.4618802   0.0000000  )
         9           C   tau(   9) = (  -0.3000000   0.5196152   0.0000000  )
        10           C   tau(  10) = (  -0.3000000   0.6350853   0.0000000  )
        11           C   tau(  11) = (  -0.4000000   0.6928203   0.0000000  )
        12           C   tau(  12) = (  -0.4000000   0.8082904   0.0000000  )
        13           C   tau(  13) = (   0.2000000   0.0000000   0.0000000  )
        14           C   tau(  14) = (   0.2000000   0.1154701   0.0000000  )
        15           C   tau(  15) = (   0.1000000   0.1732051   0.0000000  )
        16           C   tau(  16) = (   0.1000000   0.2886751   0.0000000  )
        17           C   tau(  17) = (   0.0000000   0.3464102   0.0000000  )
        18           C   tau(  18) = (   0.0000000   0.4618802   0.0000000  )
        19           C   tau(  19) = (  -0.1000000   0.5196152   0.0000000  )
        20           C   tau(  20) = (  -0.1000000   0.6350853   0.0000000  )
        21           C   tau(  21) = (  -0.2000000   0.6928203   0.0000000  )
        22           C   tau(  22) = (  -0.2000000   0.8082904   0.0000000  )
        23           C   tau(  23) = (   0.4000000   0.0000000   0.0000000  )
        24           C   tau(  24) = (   0.4000000   0.1154701   0.0000000  )
        25           C   tau(  25) = (   0.3000000   0.1732051   0.0000000  )
        26           C   tau(  26) = (   0.3000000   0.2886751   0.0000000  )
        27           C   tau(  27) = (   0.2000000   0.3464102   0.0000000  )
        28           V   tau(  28) = (   0.2000000   0.4618802   0.0000000  )
        29           C   tau(  29) = (   0.1000000   0.5196152   0.0000000  )
        30           C   tau(  30) = (   0.1000000   0.6350853   0.0000000  )
        31           C   tau(  31) = (   0.0000000   0.6928203   0.0000000  )
        32           C   tau(  32) = (   0.0000000   0.8082904   0.0000000  )
        33           C   tau(  33) = (   0.6000000   0.0000000   0.0000000  )
        34           C   tau(  34) = (   0.6000000   0.1154701   0.0000000  )
        35           C   tau(  35) = (   0.5000000   0.1732051   0.0000000  )
        36           C   tau(  36) = (   0.5000000   0.2886751   0.0000000  )
        37           C   tau(  37) = (   0.4000000   0.3464102   0.0000000  )
        38           C   tau(  38) = (   0.4000000   0.4618802   0.0000000  )
        39           C   tau(  39) = (   0.3000000   0.5196152   0.0000000  )
        40           C   tau(  40) = (   0.3000000   0.6350853   0.0000000  )
        41           C   tau(  41) = (   0.2000000   0.6928203   0.0000000  )
        42           C   tau(  42) = (   0.2000000   0.8082904   0.0000000  )
        43           C   tau(  43) = (   0.8000000   0.0000000   0.0000000  )
        44           C   tau(  44) = (   0.8000000   0.1154701   0.0000000  )
        45           C   tau(  45) = (   0.7000000   0.1732051   0.0000000  )
        46           C   tau(  46) = (   0.7000000   0.2886751   0.0000000  )
        47           C   tau(  47) = (   0.6000000   0.3464102   0.0000000  )
        48           C   tau(  48) = (   0.6000000   0.4618802   0.0000000  )
        49           C   tau(  49) = (   0.5000000   0.5196152   0.0000000  )
        50           C   tau(  50) = (   0.5000000   0.6350853   0.0000000  )
        51           C   tau(  51) = (   0.4000000   0.6928203   0.0000000  )
        52           C   tau(  52) = (   0.4000000   0.8082904   0.0000000  )

   Crystallographic axes

     site n.     atom                  positions (cryst. coord.)
         1           H   tau(   1) = (  0.5000000  0.5000000  0.2400000  )
         2           H   tau(   2) = (  0.5000000  0.5000000  0.3152072  )
         3           C   tau(   3) = (  0.0000000  0.0000000  0.0000000  )
         4           C   tau(   4) = (  0.0666667  0.1333333  0.0000000  )
         5           C   tau(   5) = (  0.0000000  0.2000000  0.0000000  )
         6           C   tau(   6) = (  0.0666667  0.3333333  0.0000000  )
         7           C   tau(   7) = (  0.0000000  0.4000000  0.0000000  )
         8           C   tau(   8) = (  0.0666667  0.5333333  0.0000000  )
         9           C   tau(   9) = (  0.0000000  0.6000000  0.0000000  )
        10           C   tau(  10) = (  0.0666667  0.7333333  0.0000000  )
        11           C   tau(  11) = (  0.0000000  0.8000000  0.0000000  )
        12           C   tau(  12) = (  0.0666667  0.9333333  0.0000000  )
        13           C   tau(  13) = (  0.2000000  0.0000000  0.0000000  )
        14           C   tau(  14) = (  0.2666667  0.1333333  0.0000000  )
        15           C   tau(  15) = (  0.2000000  0.2000000  0.0000000  )
        16           C   tau(  16) = (  0.2666667  0.3333333  0.0000000  )
        17           C   tau(  17) = (  0.2000000  0.4000000  0.0000000  )
        18           C   tau(  18) = (  0.2666667  0.5333333  0.0000000  )
        19           C   tau(  19) = (  0.2000000  0.6000000  0.0000000  )
        20           C   tau(  20) = (  0.2666667  0.7333333  0.0000000  )
        21           C   tau(  21) = (  0.2000000  0.8000000  0.0000000  )
        22           C   tau(  22) = (  0.2666667  0.9333333  0.0000000  )
        23           C   tau(  23) = (  0.4000000  0.0000000  0.0000000  )
        24           C   tau(  24) = (  0.4666667  0.1333333  0.0000000  )
        25           C   tau(  25) = (  0.4000000  0.2000000  0.0000000  )
        26           C   tau(  26) = (  0.4666667  0.3333333  0.0000000  )
        27           C   tau(  27) = (  0.4000000  0.4000000  0.0000000  )
        28           V   tau(  28) = (  0.4666667  0.5333333  0.0000000  )
        29           C   tau(  29) = (  0.4000000  0.6000000  0.0000000  )
        30           C   tau(  30) = (  0.4666667  0.7333333  0.0000000  )
        31           C   tau(  31) = (  0.4000000  0.8000000  0.0000000  )
        32           C   tau(  32) = (  0.4666667  0.9333333  0.0000000  )
        33           C   tau(  33) = (  0.6000000  0.0000000  0.0000000  )
        34           C   tau(  34) = (  0.6666667  0.1333333  0.0000000  )
        35           C   tau(  35) = (  0.6000000  0.2000000  0.0000000  )
        36           C   tau(  36) = (  0.6666667  0.3333333  0.0000000  )
        37           C   tau(  37) = (  0.6000000  0.4000000  0.0000000  )
        38           C   tau(  38) = (  0.6666667  0.5333333  0.0000000  )
        39           C   tau(  39) = (  0.6000000  0.6000000  0.0000000  )
        40           C   tau(  40) = (  0.6666667  0.7333333  0.0000000  )
        41           C   tau(  41) = (  0.6000000  0.8000000  0.0000000  )
        42           C   tau(  42) = (  0.6666667  0.9333333  0.0000000  )
        43           C   tau(  43) = (  0.8000000  0.0000000  0.0000000  )
        44           C   tau(  44) = (  0.8666667  0.1333333  0.0000000  )
        45           C   tau(  45) = (  0.8000000  0.2000000  0.0000000  )
        46           C   tau(  46) = (  0.8666667  0.3333333  0.0000000  )
        47           C   tau(  47) = (  0.8000000  0.4000000  0.0000000  )
        48           C   tau(  48) = (  0.8666667  0.5333333  0.0000000  )
        49           C   tau(  49) = (  0.8000000  0.6000000  0.0000000  )
        50           C   tau(  50) = (  0.8666667  0.7333333  0.0000000  )
        51           C   tau(  51) = (  0.8000000  0.8000000  0.0000000  )
        52           C   tau(  52) = (  0.8666667  0.9333333  0.0000000  )

     number of k points=     1  Marzari-Vanderbilt smearing, width (Ry)=  0.0010
                       cart. coord. in units 2pi/alat
        k(    1) = (   0.0000000   0.0000000   0.0000000), wk =   2.0000000

                       cryst. coord.
        k(    1) = (   0.0000000   0.0000000   0.0000000), wk =   2.0000000

     Dense  grid:  1626001 G-vectors     FFT dimensions: ( 180, 180, 135)

     Smooth grid:   702581 G-vectors     FFT dimensions: ( 125, 125, 108)

     Dynamical RAM for                 wfc:      28.36 MB

     Dynamical RAM for     wfc (w. buffer):      28.36 MB

     Dynamical RAM for           str. fact:      12.41 MB

     Dynamical RAM for           local pot:       0.00 MB

     Dynamical RAM for          nlocal pot:      92.46 MB

     Dynamical RAM for                qrad:      19.73 MB

     Dynamical RAM for          rho,v,vnew:      29.46 MB

     Dynamical RAM for               rhoin:       9.82 MB

     Dynamical RAM for            rho*nmix:      66.16 MB

     Dynamical RAM for           G-vectors:      16.40 MB

     Dynamical RAM for          h,s,v(r/c):      11.81 MB

     Dynamical RAM for          <psi|beta>:       0.80 MB

     Dynamical RAM for                 psi:     113.46 MB

     Dynamical RAM for                hpsi:     113.46 MB

     Dynamical RAM for                spsi:     113.46 MB

     Dynamical RAM for      wfcinit/wfcrot:      93.90 MB

     Dynamical RAM for           addusdens:     971.75 MB

     Estimated static dynamical RAM per process >     319.78 MB

     Estimated max dynamical RAM per process >       1.26 GB

     Estimated total dynamical RAM >       7.57 GB

     Check: negative core charge=   -0.000002

     Initial potential from superposition of free atoms

     starting charge  210.80465, renormalised to  211.00000

     negative rho (up, down):  1.221E-04 0.000E+00


---------------------------------------------------------------------------------
Carrying out rVV10 run using the following parameters:
Nqs =      20    Nr_points =    1024   r_max =   100.000
b_value =  6.30000    beta =  0.00901
     q_mesh =  0.00010000  0.00030000  0.00058939  0.00100810
               0.00161396  0.00249058  0.00375900  0.00559430
               0.00824984  0.01209221  0.01765183  0.02569619
               0.03733578  0.05417739  0.07854596  0.11380545
               0.16482331  0.23864234  0.34545298  0.50000000

Gradients computed in Reciprocal space

---------------------------------------------------------------------------------


     Starting wfcs are  208 randomized atomic wfcs

     total cpu time spent up to now is       52.0 secs

     Self-consistent Calculation

     iteration #  1     ecut=    70.00 Ry     beta= 0.70
     Davidson diagonalization with overlap
     ethr =  1.00E-02,  avg # of iterations =  3.0

     negative rho (up, down):  2.545E-04 0.000E+00

     total cpu time spent up to now is      117.5 secs

     total energy              =    -752.90845413 Ry
     Harris-Foulkes estimate   =    -760.58920271 Ry
     estimated scf accuracy    <      10.71034241 Ry

     iteration #  2     ecut=    70.00 Ry     beta= 0.70
     Davidson diagonalization with overlap
     ethr =  5.08E-03,  avg # of iterations =  7.0

     negative rho (up, down):  1.975E-03 0.000E+00

     total cpu time spent up to now is      181.2 secs

     total energy              =    -747.59215900 Ry
     Harris-Foulkes estimate   =    -769.95079221 Ry
     estimated scf accuracy    <      76.90451693 Ry

     iteration #  3     ecut=    70.00 Ry     beta= 0.70
     Davidson diagonalization with overlap
     ethr =  5.08E-03,  avg # of iterations =  5.0

     negative rho (up, down):  9.355E-03 0.000E+00

     total cpu time spent up to now is      262.3 secs

     total energy              =    -756.09261841 Ry
     Harris-Foulkes estimate   =    -758.12961756 Ry
     estimated scf accuracy    <       6.77898290 Ry

     iteration #  4     ecut=    70.00 Ry     beta= 0.70
     Davidson diagonalization with overlap
     ethr =  3.21E-03,  avg # of iterations =  3.0

     negative rho (up, down):  5.007E-02 0.000E+00

     total cpu time spent up to now is      314.5 secs

     total energy              =    -757.01256168 Ry
     Harris-Foulkes estimate   =    -757.62009802 Ry
     estimated scf accuracy    <       1.53643424 Ry

     iteration #  5     ecut=    70.00 Ry     beta= 0.70
     Davidson diagonalization with overlap
     ethr =  7.28E-04,  avg # of iterations =  8.0

     negative rho (up, down):  5.735E-02 0.000E+00

     total cpu time spent up to now is      371.2 secs

     total energy              =    -757.26446633 Ry
     Harris-Foulkes estimate   =    -757.32556349 Ry
     estimated scf accuracy    <       0.21627747 Ry

     iteration #  6     ecut=    70.00 Ry     beta= 0.70
     Davidson diagonalization with overlap
     ethr =  1.03E-04,  avg # of iterations =  5.0

     negative rho (up, down):  3.885E-02 0.000E+00

     total cpu time spent up to now is      422.5 secs

     total energy              =    -757.29513496 Ry
     Harris-Foulkes estimate   =    -757.30054817 Ry
     estimated scf accuracy    <       0.06218603 Ry

     iteration #  7     ecut=    70.00 Ry     beta= 0.70
     Davidson diagonalization with overlap
     ethr =  2.95E-05,  avg # of iterations =  4.0

     negative rho (up, down):  3.822E-02 0.000E+00

     total cpu time spent up to now is      480.3 secs

     total energy              =    -757.30949936 Ry
     Harris-Foulkes estimate   =    -757.32204412 Ry
     estimated scf accuracy    <       0.07450119 Ry

     iteration #  8     ecut=    70.00 Ry     beta= 0.70
     Davidson diagonalization with overlap
     ethr =  2.95E-05,  avg # of iterations =  4.0

     negative rho (up, down):  2.960E-02 0.000E+00

     total cpu time spent up to now is      532.2 secs

     total energy              =    -757.32352323 Ry
     Harris-Foulkes estimate   =    -757.32106504 Ry
     estimated scf accuracy    <       0.01751354 Ry

     iteration #  9     ecut=    70.00 Ry     beta= 0.70
     Davidson diagonalization with overlap
     ethr =  8.30E-06,  avg # of iterations =  5.0

     negative rho (up, down):  3.297E-02 0.000E+00

     total cpu time spent up to now is      588.5 secs

     total energy              =    -757.32705963 Ry
     Harris-Foulkes estimate   =    -757.32940508 Ry
     estimated scf accuracy    <       0.01805917 Ry

     iteration # 10     ecut=    70.00 Ry     beta= 0.70
     Davidson diagonalization with overlap
     ethr =  8.30E-06,  avg # of iterations =  2.0

     negative rho (up, down):  3.383E-02 0.000E+00

     total cpu time spent up to now is      636.6 secs

     total energy              =    -757.32790280 Ry
     Harris-Foulkes estimate   =    -757.32798827 Ry
     estimated scf accuracy    <       0.00230094 Ry

     iteration # 11     ecut=    70.00 Ry     beta= 0.70
     Davidson diagonalization with overlap
     ethr =  1.09E-06,  avg # of iterations =  4.0

     negative rho (up, down):  3.371E-02 0.000E+00

     total cpu time spent up to now is      687.8 secs

     total energy              =    -757.32864395 Ry
     Harris-Foulkes estimate   =    -757.32836786 Ry
     estimated scf accuracy    <       0.00373591 Ry

     iteration # 12     ecut=    70.00 Ry     beta= 0.70
     Davidson diagonalization with overlap
     ethr =  1.09E-06,  avg # of iterations =  3.0

     negative rho (up, down):  3.348E-02 0.000E+00

     total cpu time spent up to now is      738.0 secs

     total energy              =    -757.32944239 Ry
     Harris-Foulkes estimate   =    -757.32890005 Ry
     estimated scf accuracy    <       0.00115000 Ry

     iteration # 13     ecut=    70.00 Ry     beta= 0.70
     Davidson diagonalization with overlap
     ethr =  5.45E-07,  avg # of iterations =  4.0

     negative rho (up, down):  3.374E-02 0.000E+00

     total cpu time spent up to now is      788.7 secs

     total energy              =    -757.32948819 Ry
     Harris-Foulkes estimate   =    -757.32951711 Ry
     estimated scf accuracy    <       0.00019519 Ry

     iteration # 14     ecut=    70.00 Ry     beta= 0.70
     Davidson diagonalization with overlap
     ethr =  9.25E-08,  avg # of iterations =  2.0

     negative rho (up, down):  3.396E-02 0.000E+00

     total cpu time spent up to now is      837.1 secs

     total energy              =    -757.32953533 Ry
     Harris-Foulkes estimate   =    -757.32951411 Ry
     estimated scf accuracy    <       0.00019263 Ry

     iteration # 15     ecut=    70.00 Ry     beta= 0.70
     Davidson diagonalization with overlap
     ethr =  9.13E-08,  avg # of iterations =  1.0

     negative rho (up, down):  3.401E-02 0.000E+00

     total cpu time spent up to now is      885.2 secs

     total energy              =    -757.32954279 Ry
     Harris-Foulkes estimate   =    -757.32954448 Ry
     estimated scf accuracy    <       0.00001361 Ry

     iteration # 16     ecut=    70.00 Ry     beta= 0.70
     Davidson diagonalization with overlap
     ethr =  6.45E-09,  avg # of iterations =  4.0

     negative rho (up, down):  3.404E-02 0.000E+00

     total cpu time spent up to now is      935.0 secs

     total energy              =    -757.32954382 Ry
     Harris-Foulkes estimate   =    -757.32954383 Ry
     estimated scf accuracy    <       0.00000339 Ry

     iteration # 17     ecut=    70.00 Ry     beta= 0.70
     Davidson diagonalization with overlap
     ethr =  1.61E-09,  avg # of iterations =  1.0

     negative rho (up, down):  3.407E-02 0.000E+00

     total cpu time spent up to now is      983.0 secs

     End of self-consistent calculation

          k = 0.0000 0.0000 0.0000 ( 87777 PWs)   bands (ev):

   -62.7473 -37.8508 -37.8469 -36.4789 -19.6202 -18.7783 -18.7760 -18.7082
   -18.6659 -18.6639 -18.2222 -16.9249 -16.9234 -16.9233 -16.7819 -16.7812
   -16.5061 -16.0664 -16.0660 -15.9782 -15.8205 -15.8202 -15.0733 -13.8731
   -13.8678 -13.8662 -13.8546 -13.8543 -13.1324 -12.9091 -12.9090 -12.8889
   -12.4987 -12.4985 -12.1007 -11.6339 -11.6334 -11.5110 -11.1306 -11.1302
   -10.1420  -9.3269  -9.3264  -9.2478  -9.1702  -9.1702  -9.0848  -9.0573
    -9.0573  -9.0437  -8.4574  -8.4571  -7.8866  -7.8854  -7.8556  -7.8108
    -7.6693  -7.4346  -7.2455  -7.2433  -6.9221  -6.8939  -6.8742  -6.6792
    -6.6776  -6.6647  -6.5830  -6.5826  -6.5368  -6.4271  -6.4256  -6.3841
    -6.3796  -6.3793  -6.3261  -6.1993  -5.2526  -5.2518  -5.1174  -5.1008
    -4.9373  -4.9370  -4.8282  -4.7401  -4.5952  -4.5792  -4.5791  -4.2124
    -3.9582  -3.9552  -3.7189  -3.7189  -3.6324  -3.6127  -3.4920  -3.4917
    -2.8628  -2.2252  -2.2239  -2.1906  -2.1882  -1.6968  -1.6704  -1.6698
    -0.5286  -0.1275  -0.1272   0.9902   1.0889   1.0924   1.0951   1.8259
     2.0861   2.0875   2.5338   2.9324   2.9350   2.9979   3.4863   3.5051
     3.5280   3.7723   3.7803   3.8298   3.9189   4.0386   4.2424

     occupation numbers 
     1.0000   1.0000   1.0000   1.0000   1.0000   1.0000   1.0000   1.0000
     1.0000   1.0000   1.0000   1.0000   1.0000   1.0000   1.0000   1.0000
     1.0000   1.0000   1.0000   1.0000   1.0000   1.0000   1.0000   1.0000
     1.0000   1.0000   1.0000   1.0000   1.0000   1.0000   1.0000   1.0000
     1.0000   1.0000   1.0000   1.0000   1.0000   1.0000   1.0000   1.0000
     1.0000   1.0000   1.0000   1.0000   1.0000   1.0000   1.0000   1.0000
     1.0000   1.0000   1.0000   1.0000   1.0000   1.0000   1.0000   1.0000
     1.0000   1.0000   1.0000   1.0000   1.0000   1.0000   1.0000   1.0000
     1.0000   1.0000   1.0000   1.0000   1.0000   1.0000   1.0000   1.0000
     1.0000   1.0000   1.0000   1.0000   1.0000   1.0000   1.0000   1.0000
     1.0000   1.0000   1.0000   1.0000   1.0000   1.0000   1.0000   1.0000
     1.0000   1.0000   1.0000   1.0000   1.0000   1.0000   1.0000   1.0000
     1.0000   1.0000   1.0000   1.0000   1.0000   1.0000   1.0000   1.0000
     1.0000   0.2557   0.2443   0.0000   0.0000   0.0000   0.0000   0.0000
     0.0000   0.0000   0.0000   0.0000   0.0000   0.0000   0.0000   0.0000
     0.0000   0.0000   0.0000   0.0000   0.0000   0.0000   0.0000

     the Fermi energy is    -0.1307 ev

!    total energy              =    -757.32954342 Ry
     Harris-Foulkes estimate   =    -757.32954392 Ry
     estimated scf accuracy    <       0.00000065 Ry

     The total energy is the sum of the following terms:

     one-electron contribution =   -2591.36335648 Ry
     hartree contribution      =    1342.50847766 Ry
     xc contribution           =    -252.67134559 Ry
     ewald contribution        =     744.19729437 Ry
     smearing contrib. (-TS)   =      -0.00061338 Ry

     convergence has been achieved in  17 iterations

     Writing output data file gr-12-bridge2.save/

     init_run     :     49.80s CPU     50.91s WALL (       1 calls)
     electrons    :    903.71s CPU    931.08s WALL (       1 calls)

     Called by init_run:
     wfcinit      :     20.74s CPU     20.91s WALL (       1 calls)
     wfcinit:atom :      0.03s CPU      0.04s WALL (       1 calls)
     wfcinit:wfcr :     20.55s CPU     20.67s WALL (       1 calls)
     potinit      :     12.85s CPU     13.25s WALL (       1 calls)
     hinit0       :     11.54s CPU     11.60s WALL (       1 calls)

     Called by electrons:
     c_bands      :    559.55s CPU    563.10s WALL (      17 calls)
     sum_band     :    170.83s CPU    179.87s WALL (      17 calls)
     v_of_rho     :    106.86s CPU    113.52s WALL (      18 calls)
     v_h          :      1.25s CPU      1.29s WALL (      18 calls)
     v_xc         :    105.61s CPU    112.23s WALL (      18 calls)
     newd         :     71.32s CPU     80.13s WALL (      18 calls)
     mix_rho      :      3.15s CPU      3.21s WALL (      17 calls)

     Called by c_bands:
     init_us_2    :      1.47s CPU      1.51s WALL (      35 calls)
     cegterg      :    555.93s CPU    559.46s WALL (      17 calls)

     Called by sum_band:
     sum_band:bec :      0.01s CPU      0.01s WALL (      17 calls)
     addusdens    :    105.25s CPU    113.77s WALL (      17 calls)

     Called by *egterg:
     h_psi        :    294.37s CPU    296.79s WALL (      83 calls)
     s_psi        :     99.52s CPU     99.61s WALL (      83 calls)
     g_psi        :      0.32s CPU      0.32s WALL (      65 calls)
     cdiaghg      :      6.14s CPU      6.14s WALL (      82 calls)
     cegterg:over :     70.10s CPU     70.16s WALL (      65 calls)
     cegterg:upda :     45.45s CPU     45.82s WALL (      65 calls)
     cegterg:last :     28.62s CPU     28.64s WALL (      17 calls)

     Called by h_psi:
     h_psi:pot    :    294.01s CPU    296.06s WALL (      83 calls)
     h_psi:calbec :     99.31s CPU     99.39s WALL (      83 calls)
     vloc_psi     :     95.38s CPU     97.29s WALL (      83 calls)
     add_vuspsi   :     99.32s CPU     99.38s WALL (      83 calls)

     General routines
     calbec       :    139.30s CPU    139.42s WALL (     100 calls)
     fft          :     59.21s CPU     61.62s WALL (    1132 calls)
     ffts         :      0.58s CPU      0.61s WALL (      35 calls)
     fftw         :     99.83s CPU    101.89s WALL (   12915 calls)
     interpolate  :      1.50s CPU      1.53s WALL (      18 calls)

     Parallel routines
     fft_scatt_xy :     27.56s CPU     27.97s WALL (   14082 calls)
     fft_scatt_yz :     53.37s CPU     56.62s WALL (   14082 calls)

     PWSCF        :  15m54.71s CPU  16m23.46s WALL


   This run was terminated on:   8: 9:45  21Jul2022            

=------------------------------------------------------------------------------=
   JOB DONE.
=------------------------------------------------------------------------------=
