
     Program PWSCF v.6.4.1 starts on 21Jul2022 at 11:46:53 

     This program is part of the open-source Quantum ESPRESSO suite
     for quantum simulation of materials; please cite
         "P. Giannozzi et al., J. Phys.:Condens. Matter 21 395502 (2009);
         "P. Giannozzi et al., J. Phys.:Condens. Matter 29 465901 (2017);
          URL http://www.quantum-espresso.org", 
     in publications or presentations arising from this work. More details at
     http://www.quantum-espresso.org/quote

     Parallel version (MPI), running on     6 processors

     MPI processes distributed on     1 nodes
     R & G space division:  proc/nbgrp/npool/nimage =       6
     Reading input from distance-2.0.in

     Current dimensions of program PWSCF are:
     Max number of different atomic species (ntypx) = 10
     Max number of k-points (npk) =  40000
     Max angular momentum in pseudopotentials (lmaxx) =  3

     IMPORTANT: XC functional enforced from input :
     Exchange-correlation      = RVV10 ( 1  4 13  4 3 0)
     Any further DFT definition will be discarded
     Please, verify this is what you really want

               file H.pbe-rrkjus.UPF: wavefunction(s)  1S renormalized
               file V.pbe-spnl-rrkjus_psl.1.0.0.UPF: wavefunction(s)  3P 3D renormalized

     Subspace diagonalization in iterative solution of the eigenvalue problem:
     a serial algorithm will be used


     Parallelization info
     --------------------
     sticks:   dense  smooth     PW     G-vecs:    dense   smooth      PW
     Min        3051    1746    432               270999   117096   14629
     Max        3053    1747    437               271001   117099   14630
     Sum       18313   10477   2611              1626001   702581   87777



     bravais-lattice index     =            4
     lattice parameter (alat)  =      23.2937  a.u.
     unit-cell volume          =    8879.8548 (a.u.)^3
     number of atoms/cell      =           52
     number of atomic types    =            3
     number of electrons       =       211.00
     number of Kohn-Sham states=          127
     kinetic-energy cutoff     =      70.0000  Ry
     charge density cutoff     =     490.0000  Ry
     convergence threshold     =      1.0E-06
     mixing beta               =       0.7000
     number of iterations used =            8  plain     mixing
     Exchange-correlation      = RVV10 ( 1  4 13  4 3 0)

     celldm(1)=  23.293684  celldm(2)=   0.000000  celldm(3)=   0.811261
     celldm(4)=   0.000000  celldm(5)=   0.000000  celldm(6)=   0.000000

     crystal axes: (cart. coord. in units of alat)
               a(1) = (   1.000000   0.000000   0.000000 )  
               a(2) = (  -0.500000   0.866025   0.000000 )  
               a(3) = (   0.000000   0.000000   0.811261 )  

     reciprocal axes: (cart. coord. in units 2 pi/alat)
               b(1) = (  1.000000  0.577350 -0.000000 )  
               b(2) = (  0.000000  1.154701  0.000000 )  
               b(3) = (  0.000000 -0.000000  1.232649 )  


     PseudoPot. # 1 for H  read from file:
     /home/cristian/Escritorio/Proyecto_Grafeno/pseudopotenciales/H.pbe-rrkjus.UPF
     MD5 check sum: 7cc9d459525c9a0585f487a71c3c9563
     Pseudo is Ultrasoft, Zval =  1.0
     Generated by new atomic code, or converted to UPF format
     Using radial grid of 1061 points,  2 beta functions with: 
                l(1) =   0
                l(2) =   0
     Q(r) pseudized with 0 coefficients 


     PseudoPot. # 2 for C  read from file:
     /home/cristian/Escritorio/Proyecto_Grafeno/pseudopotenciales/C.pbe-n-rrkjus_psl.1.0.0.UPF
     MD5 check sum: 1fdd950c42eb37d8afe3dd2f8d12311e
     Pseudo is Ultrasoft + core correction, Zval =  4.0
     Generated using "atomic" code by A. Dal Corso v.6.3MaX
     Using radial grid of 1073 points,  4 beta functions with: 
                l(1) =   0
                l(2) =   0
                l(3) =   1
                l(4) =   1
     Q(r) pseudized with 0 coefficients 


     PseudoPot. # 3 for V  read from file:
     /home/cristian/Escritorio/Proyecto_Grafeno/pseudopotenciales/V.pbe-spnl-rrkjus_psl.1.0.0.UPF
     MD5 check sum: 79b3eb63147daf0b665d9f1bcc691206
     Pseudo is Ultrasoft + core correction, Zval = 13.0
     Generated using "atomic" code by A. Dal Corso v.6.2.2
     Using radial grid of 1181 points,  6 beta functions with: 
                l(1) =   0
                l(2) =   0
                l(3) =   1
                l(4) =   1
                l(5) =   2
                l(6) =   2
     Q(r) pseudized with 0 coefficients 


     vdW kernel table read from file rVV10_kernel_table
     MD5 check sum: b8e2538accc0c0b3206b45ba4daaba6c

     atomic species   valence    mass     pseudopotential
        H              1.00     1.00794     H ( 1.00)
        C              4.00    12.01070     C ( 1.00)
        V             13.00    50.94150     V ( 1.00)

     No symmetry found


                                    s                        frac. trans.

      isym =  1     identity                                     

 cryst.   s( 1) = (     1          0          0      )
                  (     0          1          0      )
                  (     0          0          1      )

 cart.    s( 1) = (  1.0000000  0.0000000  0.0000000 )
                  (  0.0000000  1.0000000  0.0000000 )
                  (  0.0000000  0.0000000  1.0000000 )


     point group C_1 (1)    
     there are  1 classes
     the character table:

       E    
A      1.00

     the symmetry operations in each class and the name of the first element:

     E        1
          identity                                               

   Cartesian axes

     site n.     atom                  positions (alat units)
         1           H   tau(   1) = (   0.2666667   0.4618802   0.1622522  )
         2           H   tau(   2) = (   0.2666667   0.4618802   0.2232649  )
         3           C   tau(   3) = (   0.0000000   0.0000000   0.0000000  )
         4           C   tau(   4) = (   0.0000000   0.1154701   0.0000000  )
         5           C   tau(   5) = (  -0.1000000   0.1732051   0.0000000  )
         6           C   tau(   6) = (  -0.1000000   0.2886751   0.0000000  )
         7           C   tau(   7) = (  -0.2000000   0.3464102   0.0000000  )
         8           C   tau(   8) = (  -0.2000000   0.4618802   0.0000000  )
         9           C   tau(   9) = (  -0.3000000   0.5196152   0.0000000  )
        10           C   tau(  10) = (  -0.3000000   0.6350853   0.0000000  )
        11           C   tau(  11) = (  -0.4000000   0.6928203   0.0000000  )
        12           C   tau(  12) = (  -0.4000000   0.8082904   0.0000000  )
        13           C   tau(  13) = (   0.2000000   0.0000000   0.0000000  )
        14           C   tau(  14) = (   0.2000000   0.1154701   0.0000000  )
        15           C   tau(  15) = (   0.1000000   0.1732051   0.0000000  )
        16           C   tau(  16) = (   0.1000000   0.2886751   0.0000000  )
        17           C   tau(  17) = (   0.0000000   0.3464102   0.0000000  )
        18           C   tau(  18) = (   0.0000000   0.4618802   0.0000000  )
        19           C   tau(  19) = (  -0.1000000   0.5196152   0.0000000  )
        20           C   tau(  20) = (  -0.1000000   0.6350853   0.0000000  )
        21           C   tau(  21) = (  -0.2000000   0.6928203   0.0000000  )
        22           C   tau(  22) = (  -0.2000000   0.8082904   0.0000000  )
        23           C   tau(  23) = (   0.4000000   0.0000000   0.0000000  )
        24           C   tau(  24) = (   0.4000000   0.1154701   0.0000000  )
        25           C   tau(  25) = (   0.3000000   0.1732051   0.0000000  )
        26           C   tau(  26) = (   0.3000000   0.2886751   0.0000000  )
        27           C   tau(  27) = (   0.2000000   0.3464102   0.0000000  )
        28           V   tau(  28) = (   0.2000000   0.4618802   0.0000000  )
        29           C   tau(  29) = (   0.1000000   0.5196152   0.0000000  )
        30           C   tau(  30) = (   0.1000000   0.6350853   0.0000000  )
        31           C   tau(  31) = (   0.0000000   0.6928203   0.0000000  )
        32           C   tau(  32) = (   0.0000000   0.8082904   0.0000000  )
        33           C   tau(  33) = (   0.6000000   0.0000000   0.0000000  )
        34           C   tau(  34) = (   0.6000000   0.1154701   0.0000000  )
        35           C   tau(  35) = (   0.5000000   0.1732051   0.0000000  )
        36           C   tau(  36) = (   0.5000000   0.2886751   0.0000000  )
        37           C   tau(  37) = (   0.4000000   0.3464102   0.0000000  )
        38           C   tau(  38) = (   0.4000000   0.4618802   0.0000000  )
        39           C   tau(  39) = (   0.3000000   0.5196152   0.0000000  )
        40           C   tau(  40) = (   0.3000000   0.6350853   0.0000000  )
        41           C   tau(  41) = (   0.2000000   0.6928203   0.0000000  )
        42           C   tau(  42) = (   0.2000000   0.8082904   0.0000000  )
        43           C   tau(  43) = (   0.8000000   0.0000000   0.0000000  )
        44           C   tau(  44) = (   0.8000000   0.1154701   0.0000000  )
        45           C   tau(  45) = (   0.7000000   0.1732051   0.0000000  )
        46           C   tau(  46) = (   0.7000000   0.2886751   0.0000000  )
        47           C   tau(  47) = (   0.6000000   0.3464102   0.0000000  )
        48           C   tau(  48) = (   0.6000000   0.4618802   0.0000000  )
        49           C   tau(  49) = (   0.5000000   0.5196152   0.0000000  )
        50           C   tau(  50) = (   0.5000000   0.6350853   0.0000000  )
        51           C   tau(  51) = (   0.4000000   0.6928203   0.0000000  )
        52           C   tau(  52) = (   0.4000000   0.8082904   0.0000000  )

   Crystallographic axes

     site n.     atom                  positions (cryst. coord.)
         1           H   tau(   1) = (  0.5333333  0.5333333  0.2000000  )
         2           H   tau(   2) = (  0.5333333  0.5333333  0.2752072  )
         3           C   tau(   3) = (  0.0000000  0.0000000  0.0000000  )
         4           C   tau(   4) = (  0.0666667  0.1333333  0.0000000  )
         5           C   tau(   5) = (  0.0000000  0.2000000  0.0000000  )
         6           C   tau(   6) = (  0.0666667  0.3333333  0.0000000  )
         7           C   tau(   7) = (  0.0000000  0.4000000  0.0000000  )
         8           C   tau(   8) = (  0.0666667  0.5333333  0.0000000  )
         9           C   tau(   9) = (  0.0000000  0.6000000  0.0000000  )
        10           C   tau(  10) = (  0.0666667  0.7333333  0.0000000  )
        11           C   tau(  11) = (  0.0000000  0.8000000  0.0000000  )
        12           C   tau(  12) = (  0.0666667  0.9333333  0.0000000  )
        13           C   tau(  13) = (  0.2000000  0.0000000  0.0000000  )
        14           C   tau(  14) = (  0.2666667  0.1333333  0.0000000  )
        15           C   tau(  15) = (  0.2000000  0.2000000  0.0000000  )
        16           C   tau(  16) = (  0.2666667  0.3333333  0.0000000  )
        17           C   tau(  17) = (  0.2000000  0.4000000  0.0000000  )
        18           C   tau(  18) = (  0.2666667  0.5333333  0.0000000  )
        19           C   tau(  19) = (  0.2000000  0.6000000  0.0000000  )
        20           C   tau(  20) = (  0.2666667  0.7333333  0.0000000  )
        21           C   tau(  21) = (  0.2000000  0.8000000  0.0000000  )
        22           C   tau(  22) = (  0.2666667  0.9333333  0.0000000  )
        23           C   tau(  23) = (  0.4000000  0.0000000  0.0000000  )
        24           C   tau(  24) = (  0.4666667  0.1333333  0.0000000  )
        25           C   tau(  25) = (  0.4000000  0.2000000  0.0000000  )
        26           C   tau(  26) = (  0.4666667  0.3333333  0.0000000  )
        27           C   tau(  27) = (  0.4000000  0.4000000  0.0000000  )
        28           V   tau(  28) = (  0.4666667  0.5333333  0.0000000  )
        29           C   tau(  29) = (  0.4000000  0.6000000  0.0000000  )
        30           C   tau(  30) = (  0.4666667  0.7333333  0.0000000  )
        31           C   tau(  31) = (  0.4000000  0.8000000  0.0000000  )
        32           C   tau(  32) = (  0.4666667  0.9333333  0.0000000  )
        33           C   tau(  33) = (  0.6000000  0.0000000  0.0000000  )
        34           C   tau(  34) = (  0.6666667  0.1333333  0.0000000  )
        35           C   tau(  35) = (  0.6000000  0.2000000  0.0000000  )
        36           C   tau(  36) = (  0.6666667  0.3333333  0.0000000  )
        37           C   tau(  37) = (  0.6000000  0.4000000  0.0000000  )
        38           C   tau(  38) = (  0.6666667  0.5333333  0.0000000  )
        39           C   tau(  39) = (  0.6000000  0.6000000  0.0000000  )
        40           C   tau(  40) = (  0.6666667  0.7333333  0.0000000  )
        41           C   tau(  41) = (  0.6000000  0.8000000  0.0000000  )
        42           C   tau(  42) = (  0.6666667  0.9333333  0.0000000  )
        43           C   tau(  43) = (  0.8000000  0.0000000  0.0000000  )
        44           C   tau(  44) = (  0.8666667  0.1333333  0.0000000  )
        45           C   tau(  45) = (  0.8000000  0.2000000  0.0000000  )
        46           C   tau(  46) = (  0.8666667  0.3333333  0.0000000  )
        47           C   tau(  47) = (  0.8000000  0.4000000  0.0000000  )
        48           C   tau(  48) = (  0.8666667  0.5333333  0.0000000  )
        49           C   tau(  49) = (  0.8000000  0.6000000  0.0000000  )
        50           C   tau(  50) = (  0.8666667  0.7333333  0.0000000  )
        51           C   tau(  51) = (  0.8000000  0.8000000  0.0000000  )
        52           C   tau(  52) = (  0.8666667  0.9333333  0.0000000  )

     number of k points=     1  Marzari-Vanderbilt smearing, width (Ry)=  0.0010
                       cart. coord. in units 2pi/alat
        k(    1) = (   0.0000000   0.0000000   0.0000000), wk =   2.0000000

                       cryst. coord.
        k(    1) = (   0.0000000   0.0000000   0.0000000), wk =   2.0000000

     Dense  grid:  1626001 G-vectors     FFT dimensions: ( 180, 180, 135)

     Smooth grid:   702581 G-vectors     FFT dimensions: ( 125, 125, 108)

     Dynamical RAM for                 wfc:      28.36 MB

     Dynamical RAM for     wfc (w. buffer):      28.36 MB

     Dynamical RAM for           str. fact:      12.41 MB

     Dynamical RAM for           local pot:       0.00 MB

     Dynamical RAM for          nlocal pot:      92.46 MB

     Dynamical RAM for                qrad:      19.73 MB

     Dynamical RAM for          rho,v,vnew:      29.46 MB

     Dynamical RAM for               rhoin:       9.82 MB

     Dynamical RAM for            rho*nmix:      66.16 MB

     Dynamical RAM for           G-vectors:      16.40 MB

     Dynamical RAM for          h,s,v(r/c):      11.81 MB

     Dynamical RAM for          <psi|beta>:       0.80 MB

     Dynamical RAM for                 psi:     113.46 MB

     Dynamical RAM for                hpsi:     113.46 MB

     Dynamical RAM for                spsi:     113.46 MB

     Dynamical RAM for      wfcinit/wfcrot:      93.90 MB

     Dynamical RAM for           addusdens:     971.75 MB

     Estimated static dynamical RAM per process >     319.78 MB

     Estimated max dynamical RAM per process >       1.26 GB

     Estimated total dynamical RAM >       7.57 GB

     Check: negative core charge=   -0.000002

     Initial potential from superposition of free atoms

     starting charge  210.80465, renormalised to  211.00000

     negative rho (up, down):  1.336E-04 0.000E+00


---------------------------------------------------------------------------------
Carrying out rVV10 run using the following parameters:
Nqs =      20    Nr_points =    1024   r_max =   100.000
b_value =  6.30000    beta =  0.00901
     q_mesh =  0.00010000  0.00030000  0.00058939  0.00100810
               0.00161396  0.00249058  0.00375900  0.00559430
               0.00824984  0.01209221  0.01765183  0.02569619
               0.03733578  0.05417739  0.07854596  0.11380545
               0.16482331  0.23864234  0.34545298  0.50000000

Gradients computed in Reciprocal space

---------------------------------------------------------------------------------


     Starting wfcs are  208 randomized atomic wfcs

     total cpu time spent up to now is       49.3 secs

     Self-consistent Calculation

     iteration #  1     ecut=    70.00 Ry     beta= 0.70
     Davidson diagonalization with overlap
     ethr =  1.00E-02,  avg # of iterations =  3.0

     negative rho (up, down):  2.774E-04 0.000E+00

     total cpu time spent up to now is      115.4 secs

     total energy              =    -751.82740484 Ry
     Harris-Foulkes estimate   =    -760.72745932 Ry
     estimated scf accuracy    <      12.09229984 Ry

     iteration #  2     ecut=    70.00 Ry     beta= 0.70
     Davidson diagonalization with overlap
     ethr =  5.73E-03,  avg # of iterations =  7.0

     negative rho (up, down):  1.994E-03 0.000E+00

     total cpu time spent up to now is      178.1 secs

     total energy              =    -744.78041931 Ry
     Harris-Foulkes estimate   =    -773.09872314 Ry
     estimated scf accuracy    <     102.04329432 Ry

     iteration #  3     ecut=    70.00 Ry     beta= 0.70
     Davidson diagonalization with overlap
     ethr =  5.73E-03,  avg # of iterations =  5.0

     negative rho (up, down):  3.157E-02 0.000E+00

     total cpu time spent up to now is      256.6 secs

     total energy              =    -755.99943641 Ry
     Harris-Foulkes estimate   =    -758.38552398 Ry
     estimated scf accuracy    <       6.05623605 Ry

     iteration #  4     ecut=    70.00 Ry     beta= 0.70
     Davidson diagonalization with overlap
     ethr =  2.87E-03,  avg # of iterations =  4.0

     negative rho (up, down):  4.536E-02 0.000E+00

     total cpu time spent up to now is      315.1 secs

     total energy              =    -756.74137359 Ry
     Harris-Foulkes estimate   =    -757.70528308 Ry
     estimated scf accuracy    <       2.83769535 Ry

     iteration #  5     ecut=    70.00 Ry     beta= 0.70
     Davidson diagonalization with overlap
     ethr =  1.34E-03,  avg # of iterations =  5.0

     negative rho (up, down):  4.422E-02 0.000E+00

     total cpu time spent up to now is      367.3 secs

     total energy              =    -757.25711791 Ry
     Harris-Foulkes estimate   =    -757.36866661 Ry
     estimated scf accuracy    <       0.43118408 Ry

     iteration #  6     ecut=    70.00 Ry     beta= 0.70
     Davidson diagonalization with overlap
     ethr =  2.04E-04,  avg # of iterations =  7.0

     negative rho (up, down):  3.891E-02 0.000E+00

     total cpu time spent up to now is      419.9 secs

     total energy              =    -757.28274012 Ry
     Harris-Foulkes estimate   =    -757.31722628 Ry
     estimated scf accuracy    <       0.13470468 Ry

     iteration #  7     ecut=    70.00 Ry     beta= 0.70
     Davidson diagonalization with overlap
     ethr =  6.38E-05,  avg # of iterations =  4.0

     negative rho (up, down):  3.157E-02 0.000E+00

     total cpu time spent up to now is      472.1 secs

     total energy              =    -757.30623781 Ry
     Harris-Foulkes estimate   =    -757.31740119 Ry
     estimated scf accuracy    <       0.08750861 Ry

     iteration #  8     ecut=    70.00 Ry     beta= 0.70
     Davidson diagonalization with overlap
     ethr =  4.15E-05,  avg # of iterations =  3.0

     negative rho (up, down):  3.584E-02 0.000E+00

     total cpu time spent up to now is      523.2 secs

     total energy              =    -757.31232848 Ry
     Harris-Foulkes estimate   =    -757.31704511 Ry
     estimated scf accuracy    <       0.01887999 Ry

     iteration #  9     ecut=    70.00 Ry     beta= 0.70
     Davidson diagonalization with overlap
     ethr =  8.95E-06,  avg # of iterations =  4.0

     negative rho (up, down):  3.478E-02 0.000E+00

     total cpu time spent up to now is      579.2 secs

     total energy              =    -757.31776280 Ry
     Harris-Foulkes estimate   =    -757.32300834 Ry
     estimated scf accuracy    <       0.04156560 Ry

     iteration # 10     ecut=    70.00 Ry     beta= 0.70
     Davidson diagonalization with overlap
     ethr =  8.95E-06,  avg # of iterations = 10.0

     negative rho (up, down):  3.569E-02 0.000E+00

     total cpu time spent up to now is      632.5 secs

     total energy              =    -757.31951886 Ry
     Harris-Foulkes estimate   =    -757.32088876 Ry
     estimated scf accuracy    <       0.01390303 Ry

     iteration # 11     ecut=    70.00 Ry     beta= 0.70
     Davidson diagonalization with overlap
     ethr =  6.59E-06,  avg # of iterations =  2.0

     negative rho (up, down):  3.535E-02 0.000E+00

     total cpu time spent up to now is      680.9 secs

     total energy              =    -757.32065688 Ry
     Harris-Foulkes estimate   =    -757.32105893 Ry
     estimated scf accuracy    <       0.01245228 Ry

     iteration # 12     ecut=    70.00 Ry     beta= 0.70
     Davidson diagonalization with overlap
     ethr =  5.90E-06,  avg # of iterations = 11.0

     negative rho (up, down):  3.412E-02 0.000E+00

     total cpu time spent up to now is      733.5 secs

     total energy              =    -757.32184530 Ry
     Harris-Foulkes estimate   =    -757.32125191 Ry
     estimated scf accuracy    <       0.00143129 Ry

     iteration # 13     ecut=    70.00 Ry     beta= 0.70
     Davidson diagonalization with overlap
     ethr =  6.78E-07,  avg # of iterations =  8.0

     negative rho (up, down):  3.320E-02 0.000E+00

     total cpu time spent up to now is      786.7 secs

     total energy              =    -757.32304885 Ry
     Harris-Foulkes estimate   =    -757.32200489 Ry
     estimated scf accuracy    <       0.00039364 Ry

     iteration # 14     ecut=    70.00 Ry     beta= 0.70
     Davidson diagonalization with overlap
     ethr =  1.87E-07,  avg # of iterations =  7.0

     negative rho (up, down):  3.347E-02 0.000E+00

     total cpu time spent up to now is      841.4 secs

     total energy              =    -757.32304609 Ry
     Harris-Foulkes estimate   =    -757.32315875 Ry
     estimated scf accuracy    <       0.00107172 Ry

     iteration # 15     ecut=    70.00 Ry     beta= 0.70
     Davidson diagonalization with overlap
     ethr =  1.87E-07,  avg # of iterations =  2.0

     negative rho (up, down):  3.366E-02 0.000E+00

     total cpu time spent up to now is      890.4 secs

     total energy              =    -757.32310420 Ry
     Harris-Foulkes estimate   =    -757.32310292 Ry
     estimated scf accuracy    <       0.00011379 Ry

     iteration # 16     ecut=    70.00 Ry     beta= 0.70
     Davidson diagonalization with overlap
     ethr =  5.39E-08,  avg # of iterations =  2.0

     negative rho (up, down):  3.377E-02 0.000E+00

     total cpu time spent up to now is      939.1 secs

     total energy              =    -757.32311375 Ry
     Harris-Foulkes estimate   =    -757.32311650 Ry
     estimated scf accuracy    <       0.00008687 Ry

     iteration # 17     ecut=    70.00 Ry     beta= 0.70
     Davidson diagonalization with overlap
     ethr =  4.12E-08,  avg # of iterations =  1.0

     negative rho (up, down):  3.381E-02 0.000E+00

     total cpu time spent up to now is      987.3 secs

     total energy              =    -757.32311707 Ry
     Harris-Foulkes estimate   =    -757.32311832 Ry
     estimated scf accuracy    <       0.00000404 Ry

     iteration # 18     ecut=    70.00 Ry     beta= 0.70
     Davidson diagonalization with overlap
     ethr =  1.91E-09,  avg # of iterations =  3.0

     negative rho (up, down):  3.387E-02 0.000E+00

     total cpu time spent up to now is     1041.2 secs

     total energy              =    -757.32311908 Ry
     Harris-Foulkes estimate   =    -757.32311842 Ry
     estimated scf accuracy    <       0.00000605 Ry

     iteration # 19     ecut=    70.00 Ry     beta= 0.70
     Davidson diagonalization with overlap
     ethr =  1.91E-09,  avg # of iterations =  2.0

     negative rho (up, down):  3.389E-02 0.000E+00

     total cpu time spent up to now is     1089.7 secs

     total energy              =    -757.32311936 Ry
     Harris-Foulkes estimate   =    -757.32311964 Ry
     estimated scf accuracy    <       0.00000191 Ry

     iteration # 20     ecut=    70.00 Ry     beta= 0.70
     Davidson diagonalization with overlap
     ethr =  9.07E-10,  avg # of iterations =  2.0

     negative rho (up, down):  3.390E-02 0.000E+00

     total cpu time spent up to now is     1138.0 secs

     End of self-consistent calculation

          k = 0.0000 0.0000 0.0000 ( 87777 PWs)   bands (ev):

   -62.7381 -37.8458 -37.8387 -36.4701 -19.6195 -18.7794 -18.7732 -18.7076
   -18.6662 -18.6611 -18.2214 -16.9246 -16.9227 -16.9211 -16.7812 -16.7800
   -16.5058 -16.0651 -16.0646 -15.9769 -15.8207 -15.8182 -15.0743 -13.8715
   -13.8683 -13.8648 -13.8538 -13.8527 -13.1316 -12.9086 -12.9074 -12.8878
   -12.4996 -12.4970 -12.1017 -11.6331 -11.6321 -11.5096 -11.1322 -11.1288
   -10.1469  -9.3278  -9.3243  -9.2464  -9.1693  -9.1685  -9.0840  -9.0566
    -9.0559  -9.0428  -8.4676  -8.4558  -8.0990  -7.8842  -7.8820  -7.8484
    -7.6724  -7.6646  -7.2441  -7.2425  -6.9220  -6.8858  -6.8408  -6.6788
    -6.6763  -6.6583  -6.5817  -6.5806  -6.5350  -6.4267  -6.4235  -6.3832
    -6.3783  -6.3777  -6.3250  -6.1329  -5.2517  -5.2493  -5.1165  -5.0614
    -4.9365  -4.9355  -4.8271  -4.7384  -4.5946  -4.5789  -4.5781  -4.1996
    -3.9577  -3.9514  -3.7186  -3.7180  -3.6312  -3.6071  -3.4908  -3.4905
    -2.8350  -2.2315  -2.2226  -2.1870  -2.1819  -1.6959  -1.6701  -1.6687
    -0.5108  -0.1319  -0.1310   1.0876   1.0899   1.0960   1.1443   1.8317
     2.0833   2.0876   2.5069   2.9305   2.9358   2.9990   3.4954   3.5173
     3.5449   3.7699   3.7803   3.8303   3.9198   4.0381   4.0397

     occupation numbers 
     1.0000   1.0000   1.0000   1.0000   1.0000   1.0000   1.0000   1.0000
     1.0000   1.0000   1.0000   1.0000   1.0000   1.0000   1.0000   1.0000
     1.0000   1.0000   1.0000   1.0000   1.0000   1.0000   1.0000   1.0000
     1.0000   1.0000   1.0000   1.0000   1.0000   1.0000   1.0000   1.0000
     1.0000   1.0000   1.0000   1.0000   1.0000   1.0000   1.0000   1.0000
     1.0000   1.0000   1.0000   1.0000   1.0000   1.0000   1.0000   1.0000
     1.0000   1.0000   1.0000   1.0000   1.0000   1.0000   1.0000   1.0000
     1.0000   1.0000   1.0000   1.0000   1.0000   1.0000   1.0000   1.0000
     1.0000   1.0000   1.0000   1.0000   1.0000   1.0000   1.0000   1.0000
     1.0000   1.0000   1.0000   1.0000   1.0000   1.0000   1.0000   1.0000
     1.0000   1.0000   1.0000   1.0000   1.0000   1.0000   1.0000   1.0000
     1.0000   1.0000   1.0000   1.0000   1.0000   1.0000   1.0000   1.0000
     1.0000   1.0000   1.0000   1.0000   1.0000   1.0000   1.0000   1.0000
     1.0000   0.2676   0.2324   0.0000   0.0000   0.0000   0.0000   0.0000
     0.0000   0.0000   0.0000   0.0000   0.0000   0.0000   0.0000   0.0000
     0.0000   0.0000   0.0000   0.0000   0.0000   0.0000   0.0000

     the Fermi energy is    -0.1348 ev

!    total energy              =    -757.32311921 Ry
     Harris-Foulkes estimate   =    -757.32311945 Ry
     estimated scf accuracy    <       0.00000040 Ry

     The total energy is the sum of the following terms:

     one-electron contribution =   -2600.88891790 Ry
     hartree contribution      =    1347.27510627 Ry
     xc contribution           =    -252.69536122 Ry
     ewald contribution        =     748.98666598 Ry
     smearing contrib. (-TS)   =      -0.00061233 Ry

     convergence has been achieved in  20 iterations

     Writing output data file gr-12-baricentro.save/

     init_run     :     47.01s CPU     48.15s WALL (       1 calls)
     electrons    :   1056.56s CPU   1088.80s WALL (       1 calls)

     Called by init_run:
     wfcinit      :     20.73s CPU     20.92s WALL (       1 calls)
     wfcinit:atom :      0.03s CPU      0.05s WALL (       1 calls)
     wfcinit:wfcr :     20.54s CPU     20.67s WALL (       1 calls)
     potinit      :     11.86s CPU     12.23s WALL (       1 calls)
     hinit0       :      9.81s CPU      9.86s WALL (       1 calls)

     Called by electrons:
     c_bands      :    649.86s CPU    653.21s WALL (      20 calls)
     sum_band     :    200.08s CPU    211.32s WALL (      20 calls)
     v_of_rho     :    127.41s CPU    134.92s WALL (      21 calls)
     v_h          :      1.46s CPU      1.51s WALL (      21 calls)
     v_xc         :    125.95s CPU    133.41s WALL (      21 calls)
     newd         :     83.08s CPU     93.92s WALL (      21 calls)
     mix_rho      :      3.90s CPU      3.98s WALL (      20 calls)

     Called by c_bands:
     init_us_2    :      1.75s CPU      1.79s WALL (      41 calls)
     cegterg      :    645.30s CPU    648.64s WALL (      20 calls)

     Called by sum_band:
     sum_band:bec :      0.02s CPU      0.02s WALL (      20 calls)
     addusdens    :    123.25s CPU    133.82s WALL (      20 calls)

     Called by *egterg:
     h_psi        :    342.60s CPU    344.93s WALL (     113 calls)
     s_psi        :    115.55s CPU    115.61s WALL (     113 calls)
     g_psi        :      0.36s CPU      0.36s WALL (      92 calls)
     cdiaghg      :      8.23s CPU      8.23s WALL (     112 calls)
     cegterg:over :     78.17s CPU     78.21s WALL (      92 calls)
     cegterg:upda :     50.95s CPU     51.26s WALL (      92 calls)
     cegterg:last :     33.15s CPU     33.16s WALL (      20 calls)

     Called by h_psi:
     h_psi:pot    :    342.16s CPU    344.08s WALL (     113 calls)
     h_psi:calbec :    115.12s CPU    115.20s WALL (     113 calls)
     vloc_psi     :    111.50s CPU    113.30s WALL (     113 calls)
     add_vuspsi   :    115.53s CPU    115.58s WALL (     113 calls)

     General routines
     calbec       :    162.37s CPU    162.50s WALL (     133 calls)
     fft          :     71.27s CPU     74.10s WALL (    1321 calls)
     ffts         :      0.70s CPU      0.72s WALL (      41 calls)
     fftw         :    118.10s CPU    120.21s WALL (   14936 calls)
     interpolate  :      1.76s CPU      1.80s WALL (      21 calls)

     Parallel routines
     fft_scatt_xy :     32.87s CPU     33.29s WALL (   16298 calls)
     fft_scatt_yz :     66.05s CPU     69.61s WALL (   16298 calls)

     PWSCF        :  18m24.77s CPU  18m58.41s WALL


   This run was terminated on:  12: 5:52  21Jul2022            

=------------------------------------------------------------------------------=
   JOB DONE.
=------------------------------------------------------------------------------=
