
     Program PWSCF v.6.4.1 starts on 21Jul2022 at 10:30:26 

     This program is part of the open-source Quantum ESPRESSO suite
     for quantum simulation of materials; please cite
         "P. Giannozzi et al., J. Phys.:Condens. Matter 21 395502 (2009);
         "P. Giannozzi et al., J. Phys.:Condens. Matter 29 465901 (2017);
          URL http://www.quantum-espresso.org", 
     in publications or presentations arising from this work. More details at
     http://www.quantum-espresso.org/quote

     Parallel version (MPI), running on     6 processors

     MPI processes distributed on     1 nodes
     R & G space division:  proc/nbgrp/npool/nimage =       6
     Reading input from distance-2.8.in

     Current dimensions of program PWSCF are:
     Max number of different atomic species (ntypx) = 10
     Max number of k-points (npk) =  40000
     Max angular momentum in pseudopotentials (lmaxx) =  3

     IMPORTANT: XC functional enforced from input :
     Exchange-correlation      = RVV10 ( 1  4 13  4 3 0)
     Any further DFT definition will be discarded
     Please, verify this is what you really want

               file H.pbe-rrkjus.UPF: wavefunction(s)  1S renormalized
               file V.pbe-spnl-rrkjus_psl.1.0.0.UPF: wavefunction(s)  3P 3D renormalized

     Subspace diagonalization in iterative solution of the eigenvalue problem:
     a serial algorithm will be used


     Parallelization info
     --------------------
     sticks:   dense  smooth     PW     G-vecs:    dense   smooth      PW
     Min        3051    1746    432               270999   117096   14629
     Max        3053    1747    437               271001   117099   14630
     Sum       18313   10477   2611              1626001   702581   87777



     bravais-lattice index     =            4
     lattice parameter (alat)  =      23.2937  a.u.
     unit-cell volume          =    8879.8548 (a.u.)^3
     number of atoms/cell      =           52
     number of atomic types    =            3
     number of electrons       =       211.00
     number of Kohn-Sham states=          127
     kinetic-energy cutoff     =      70.0000  Ry
     charge density cutoff     =     490.0000  Ry
     convergence threshold     =      1.0E-06
     mixing beta               =       0.7000
     number of iterations used =            8  plain     mixing
     Exchange-correlation      = RVV10 ( 1  4 13  4 3 0)

     celldm(1)=  23.293684  celldm(2)=   0.000000  celldm(3)=   0.811261
     celldm(4)=   0.000000  celldm(5)=   0.000000  celldm(6)=   0.000000

     crystal axes: (cart. coord. in units of alat)
               a(1) = (   1.000000   0.000000   0.000000 )  
               a(2) = (  -0.500000   0.866025   0.000000 )  
               a(3) = (   0.000000   0.000000   0.811261 )  

     reciprocal axes: (cart. coord. in units 2 pi/alat)
               b(1) = (  1.000000  0.577350 -0.000000 )  
               b(2) = (  0.000000  1.154701  0.000000 )  
               b(3) = (  0.000000 -0.000000  1.232649 )  


     PseudoPot. # 1 for H  read from file:
     /home/cristian/Escritorio/Proyecto_Grafeno/pseudopotenciales/H.pbe-rrkjus.UPF
     MD5 check sum: 7cc9d459525c9a0585f487a71c3c9563
     Pseudo is Ultrasoft, Zval =  1.0
     Generated by new atomic code, or converted to UPF format
     Using radial grid of 1061 points,  2 beta functions with: 
                l(1) =   0
                l(2) =   0
     Q(r) pseudized with 0 coefficients 


     PseudoPot. # 2 for C  read from file:
     /home/cristian/Escritorio/Proyecto_Grafeno/pseudopotenciales/C.pbe-n-rrkjus_psl.1.0.0.UPF
     MD5 check sum: 1fdd950c42eb37d8afe3dd2f8d12311e
     Pseudo is Ultrasoft + core correction, Zval =  4.0
     Generated using "atomic" code by A. Dal Corso v.6.3MaX
     Using radial grid of 1073 points,  4 beta functions with: 
                l(1) =   0
                l(2) =   0
                l(3) =   1
                l(4) =   1
     Q(r) pseudized with 0 coefficients 


     PseudoPot. # 3 for V  read from file:
     /home/cristian/Escritorio/Proyecto_Grafeno/pseudopotenciales/V.pbe-spnl-rrkjus_psl.1.0.0.UPF
     MD5 check sum: 79b3eb63147daf0b665d9f1bcc691206
     Pseudo is Ultrasoft + core correction, Zval = 13.0
     Generated using "atomic" code by A. Dal Corso v.6.2.2
     Using radial grid of 1181 points,  6 beta functions with: 
                l(1) =   0
                l(2) =   0
                l(3) =   1
                l(4) =   1
                l(5) =   2
                l(6) =   2
     Q(r) pseudized with 0 coefficients 


     vdW kernel table read from file rVV10_kernel_table
     MD5 check sum: b8e2538accc0c0b3206b45ba4daaba6c

     atomic species   valence    mass     pseudopotential
        H              1.00     1.00794     H ( 1.00)
        C              4.00    12.01070     C ( 1.00)
        V             13.00    50.94150     V ( 1.00)

     No symmetry found


                                    s                        frac. trans.

      isym =  1     identity                                     

 cryst.   s( 1) = (     1          0          0      )
                  (     0          1          0      )
                  (     0          0          1      )

 cart.    s( 1) = (  1.0000000  0.0000000  0.0000000 )
                  (  0.0000000  1.0000000  0.0000000 )
                  (  0.0000000  0.0000000  1.0000000 )


     point group C_1 (1)    
     there are  1 classes
     the character table:

       E    
A      1.00

     the symmetry operations in each class and the name of the first element:

     E        1
          identity                                               

   Cartesian axes

     site n.     atom                  positions (alat units)
         1           H   tau(   1) = (   0.2666667   0.4618802   0.2271531  )
         2           H   tau(   2) = (   0.2666667   0.4618802   0.2881658  )
         3           C   tau(   3) = (   0.0000000   0.0000000   0.0000000  )
         4           C   tau(   4) = (   0.0000000   0.1154701   0.0000000  )
         5           C   tau(   5) = (  -0.1000000   0.1732051   0.0000000  )
         6           C   tau(   6) = (  -0.1000000   0.2886751   0.0000000  )
         7           C   tau(   7) = (  -0.2000000   0.3464102   0.0000000  )
         8           C   tau(   8) = (  -0.2000000   0.4618802   0.0000000  )
         9           C   tau(   9) = (  -0.3000000   0.5196152   0.0000000  )
        10           C   tau(  10) = (  -0.3000000   0.6350853   0.0000000  )
        11           C   tau(  11) = (  -0.4000000   0.6928203   0.0000000  )
        12           C   tau(  12) = (  -0.4000000   0.8082904   0.0000000  )
        13           C   tau(  13) = (   0.2000000   0.0000000   0.0000000  )
        14           C   tau(  14) = (   0.2000000   0.1154701   0.0000000  )
        15           C   tau(  15) = (   0.1000000   0.1732051   0.0000000  )
        16           C   tau(  16) = (   0.1000000   0.2886751   0.0000000  )
        17           C   tau(  17) = (   0.0000000   0.3464102   0.0000000  )
        18           C   tau(  18) = (   0.0000000   0.4618802   0.0000000  )
        19           C   tau(  19) = (  -0.1000000   0.5196152   0.0000000  )
        20           C   tau(  20) = (  -0.1000000   0.6350853   0.0000000  )
        21           C   tau(  21) = (  -0.2000000   0.6928203   0.0000000  )
        22           C   tau(  22) = (  -0.2000000   0.8082904   0.0000000  )
        23           C   tau(  23) = (   0.4000000   0.0000000   0.0000000  )
        24           C   tau(  24) = (   0.4000000   0.1154701   0.0000000  )
        25           C   tau(  25) = (   0.3000000   0.1732051   0.0000000  )
        26           C   tau(  26) = (   0.3000000   0.2886751   0.0000000  )
        27           C   tau(  27) = (   0.2000000   0.3464102   0.0000000  )
        28           V   tau(  28) = (   0.2000000   0.4618802   0.0000000  )
        29           C   tau(  29) = (   0.1000000   0.5196152   0.0000000  )
        30           C   tau(  30) = (   0.1000000   0.6350853   0.0000000  )
        31           C   tau(  31) = (   0.0000000   0.6928203   0.0000000  )
        32           C   tau(  32) = (   0.0000000   0.8082904   0.0000000  )
        33           C   tau(  33) = (   0.6000000   0.0000000   0.0000000  )
        34           C   tau(  34) = (   0.6000000   0.1154701   0.0000000  )
        35           C   tau(  35) = (   0.5000000   0.1732051   0.0000000  )
        36           C   tau(  36) = (   0.5000000   0.2886751   0.0000000  )
        37           C   tau(  37) = (   0.4000000   0.3464102   0.0000000  )
        38           C   tau(  38) = (   0.4000000   0.4618802   0.0000000  )
        39           C   tau(  39) = (   0.3000000   0.5196152   0.0000000  )
        40           C   tau(  40) = (   0.3000000   0.6350853   0.0000000  )
        41           C   tau(  41) = (   0.2000000   0.6928203   0.0000000  )
        42           C   tau(  42) = (   0.2000000   0.8082904   0.0000000  )
        43           C   tau(  43) = (   0.8000000   0.0000000   0.0000000  )
        44           C   tau(  44) = (   0.8000000   0.1154701   0.0000000  )
        45           C   tau(  45) = (   0.7000000   0.1732051   0.0000000  )
        46           C   tau(  46) = (   0.7000000   0.2886751   0.0000000  )
        47           C   tau(  47) = (   0.6000000   0.3464102   0.0000000  )
        48           C   tau(  48) = (   0.6000000   0.4618802   0.0000000  )
        49           C   tau(  49) = (   0.5000000   0.5196152   0.0000000  )
        50           C   tau(  50) = (   0.5000000   0.6350853   0.0000000  )
        51           C   tau(  51) = (   0.4000000   0.6928203   0.0000000  )
        52           C   tau(  52) = (   0.4000000   0.8082904   0.0000000  )

   Crystallographic axes

     site n.     atom                  positions (cryst. coord.)
         1           H   tau(   1) = (  0.5333333  0.5333333  0.2800000  )
         2           H   tau(   2) = (  0.5333333  0.5333333  0.3552072  )
         3           C   tau(   3) = (  0.0000000  0.0000000  0.0000000  )
         4           C   tau(   4) = (  0.0666667  0.1333333  0.0000000  )
         5           C   tau(   5) = (  0.0000000  0.2000000  0.0000000  )
         6           C   tau(   6) = (  0.0666667  0.3333333  0.0000000  )
         7           C   tau(   7) = (  0.0000000  0.4000000  0.0000000  )
         8           C   tau(   8) = (  0.0666667  0.5333333  0.0000000  )
         9           C   tau(   9) = (  0.0000000  0.6000000  0.0000000  )
        10           C   tau(  10) = (  0.0666667  0.7333333  0.0000000  )
        11           C   tau(  11) = (  0.0000000  0.8000000  0.0000000  )
        12           C   tau(  12) = (  0.0666667  0.9333333  0.0000000  )
        13           C   tau(  13) = (  0.2000000  0.0000000  0.0000000  )
        14           C   tau(  14) = (  0.2666667  0.1333333  0.0000000  )
        15           C   tau(  15) = (  0.2000000  0.2000000  0.0000000  )
        16           C   tau(  16) = (  0.2666667  0.3333333  0.0000000  )
        17           C   tau(  17) = (  0.2000000  0.4000000  0.0000000  )
        18           C   tau(  18) = (  0.2666667  0.5333333  0.0000000  )
        19           C   tau(  19) = (  0.2000000  0.6000000  0.0000000  )
        20           C   tau(  20) = (  0.2666667  0.7333333  0.0000000  )
        21           C   tau(  21) = (  0.2000000  0.8000000  0.0000000  )
        22           C   tau(  22) = (  0.2666667  0.9333333  0.0000000  )
        23           C   tau(  23) = (  0.4000000  0.0000000  0.0000000  )
        24           C   tau(  24) = (  0.4666667  0.1333333  0.0000000  )
        25           C   tau(  25) = (  0.4000000  0.2000000  0.0000000  )
        26           C   tau(  26) = (  0.4666667  0.3333333  0.0000000  )
        27           C   tau(  27) = (  0.4000000  0.4000000  0.0000000  )
        28           V   tau(  28) = (  0.4666667  0.5333333  0.0000000  )
        29           C   tau(  29) = (  0.4000000  0.6000000  0.0000000  )
        30           C   tau(  30) = (  0.4666667  0.7333333  0.0000000  )
        31           C   tau(  31) = (  0.4000000  0.8000000  0.0000000  )
        32           C   tau(  32) = (  0.4666667  0.9333333  0.0000000  )
        33           C   tau(  33) = (  0.6000000  0.0000000  0.0000000  )
        34           C   tau(  34) = (  0.6666667  0.1333333  0.0000000  )
        35           C   tau(  35) = (  0.6000000  0.2000000  0.0000000  )
        36           C   tau(  36) = (  0.6666667  0.3333333  0.0000000  )
        37           C   tau(  37) = (  0.6000000  0.4000000  0.0000000  )
        38           C   tau(  38) = (  0.6666667  0.5333333  0.0000000  )
        39           C   tau(  39) = (  0.6000000  0.6000000  0.0000000  )
        40           C   tau(  40) = (  0.6666667  0.7333333  0.0000000  )
        41           C   tau(  41) = (  0.6000000  0.8000000  0.0000000  )
        42           C   tau(  42) = (  0.6666667  0.9333333  0.0000000  )
        43           C   tau(  43) = (  0.8000000  0.0000000  0.0000000  )
        44           C   tau(  44) = (  0.8666667  0.1333333  0.0000000  )
        45           C   tau(  45) = (  0.8000000  0.2000000  0.0000000  )
        46           C   tau(  46) = (  0.8666667  0.3333333  0.0000000  )
        47           C   tau(  47) = (  0.8000000  0.4000000  0.0000000  )
        48           C   tau(  48) = (  0.8666667  0.5333333  0.0000000  )
        49           C   tau(  49) = (  0.8000000  0.6000000  0.0000000  )
        50           C   tau(  50) = (  0.8666667  0.7333333  0.0000000  )
        51           C   tau(  51) = (  0.8000000  0.8000000  0.0000000  )
        52           C   tau(  52) = (  0.8666667  0.9333333  0.0000000  )

     number of k points=     1  Marzari-Vanderbilt smearing, width (Ry)=  0.0010
                       cart. coord. in units 2pi/alat
        k(    1) = (   0.0000000   0.0000000   0.0000000), wk =   2.0000000

                       cryst. coord.
        k(    1) = (   0.0000000   0.0000000   0.0000000), wk =   2.0000000

     Dense  grid:  1626001 G-vectors     FFT dimensions: ( 180, 180, 135)

     Smooth grid:   702581 G-vectors     FFT dimensions: ( 125, 125, 108)

     Dynamical RAM for                 wfc:      28.36 MB

     Dynamical RAM for     wfc (w. buffer):      28.36 MB

     Dynamical RAM for           str. fact:      12.41 MB

     Dynamical RAM for           local pot:       0.00 MB

     Dynamical RAM for          nlocal pot:      92.46 MB

     Dynamical RAM for                qrad:      19.73 MB

     Dynamical RAM for          rho,v,vnew:      29.46 MB

     Dynamical RAM for               rhoin:       9.82 MB

     Dynamical RAM for            rho*nmix:      66.16 MB

     Dynamical RAM for           G-vectors:      16.40 MB

     Dynamical RAM for          h,s,v(r/c):      11.81 MB

     Dynamical RAM for          <psi|beta>:       0.80 MB

     Dynamical RAM for                 psi:     113.46 MB

     Dynamical RAM for                hpsi:     113.46 MB

     Dynamical RAM for                spsi:     113.46 MB

     Dynamical RAM for      wfcinit/wfcrot:      93.90 MB

     Dynamical RAM for           addusdens:     971.75 MB

     Estimated static dynamical RAM per process >     319.78 MB

     Estimated max dynamical RAM per process >       1.26 GB

     Estimated total dynamical RAM >       7.57 GB

     Check: negative core charge=   -0.000002

     Initial potential from superposition of free atoms

     starting charge  210.80465, renormalised to  211.00000

     negative rho (up, down):  1.147E-04 0.000E+00


---------------------------------------------------------------------------------
Carrying out rVV10 run using the following parameters:
Nqs =      20    Nr_points =    1024   r_max =   100.000
b_value =  6.30000    beta =  0.00901
     q_mesh =  0.00010000  0.00030000  0.00058939  0.00100810
               0.00161396  0.00249058  0.00375900  0.00559430
               0.00824984  0.01209221  0.01765183  0.02569619
               0.03733578  0.05417739  0.07854596  0.11380545
               0.16482331  0.23864234  0.34545298  0.50000000

Gradients computed in Reciprocal space

---------------------------------------------------------------------------------


     Starting wfcs are  208 randomized atomic wfcs

     total cpu time spent up to now is       48.9 secs

     Self-consistent Calculation

     iteration #  1     ecut=    70.00 Ry     beta= 0.70
     Davidson diagonalization with overlap
     ethr =  1.00E-02,  avg # of iterations =  3.0

     negative rho (up, down):  1.816E-03 0.000E+00

     total cpu time spent up to now is      114.8 secs

     total energy              =    -754.72440454 Ry
     Harris-Foulkes estimate   =    -760.49695182 Ry
     estimated scf accuracy    <       8.55637723 Ry

     iteration #  2     ecut=    70.00 Ry     beta= 0.70
     Davidson diagonalization with overlap
     ethr =  4.06E-03,  avg # of iterations =  7.0

     negative rho (up, down):  1.881E-02 0.000E+00

     total cpu time spent up to now is      179.6 secs

     total energy              =    -748.30625467 Ry
     Harris-Foulkes estimate   =    -763.68684975 Ry
     estimated scf accuracy    <      52.55297738 Ry

     iteration #  3     ecut=    70.00 Ry     beta= 0.70
     Davidson diagonalization with overlap
     ethr =  4.06E-03,  avg # of iterations =  5.0

     negative rho (up, down):  2.176E-03 0.000E+00

     total cpu time spent up to now is      271.8 secs

     total energy              =    -755.51441284 Ry
     Harris-Foulkes estimate   =    -758.98774511 Ry
     estimated scf accuracy    <      17.01511754 Ry

     iteration #  4     ecut=    70.00 Ry     beta= 0.70
     Davidson diagonalization with overlap
     ethr =  4.06E-03,  avg # of iterations =  5.0

     negative rho (up, down):  4.730E-02 0.000E+00

     total cpu time spent up to now is      323.7 secs

     total energy              =    -757.11647639 Ry
     Harris-Foulkes estimate   =    -757.74068031 Ry
     estimated scf accuracy    <       1.83077693 Ry

     iteration #  5     ecut=    70.00 Ry     beta= 0.70
     Davidson diagonalization with overlap
     ethr =  8.68E-04,  avg # of iterations =  6.0

     negative rho (up, down):  6.667E-02 0.000E+00

     total cpu time spent up to now is      378.3 secs

     total energy              =    -757.27336327 Ry
     Harris-Foulkes estimate   =    -757.34696337 Ry
     estimated scf accuracy    <       0.26640408 Ry

     iteration #  6     ecut=    70.00 Ry     beta= 0.70
     Davidson diagonalization with overlap
     ethr =  1.26E-04,  avg # of iterations =  3.0

     negative rho (up, down):  5.632E-02 0.000E+00

     total cpu time spent up to now is      431.0 secs

     total energy              =    -757.29230170 Ry
     Harris-Foulkes estimate   =    -757.32001254 Ry
     estimated scf accuracy    <       0.17338680 Ry

     iteration #  7     ecut=    70.00 Ry     beta= 0.70
     Davidson diagonalization with overlap
     ethr =  8.22E-05,  avg # of iterations =  3.0

     negative rho (up, down):  4.176E-02 0.000E+00

     total cpu time spent up to now is      480.2 secs

     total energy              =    -757.30417170 Ry
     Harris-Foulkes estimate   =    -757.31346957 Ry
     estimated scf accuracy    <       0.09082218 Ry

     iteration #  8     ecut=    70.00 Ry     beta= 0.70
     Davidson diagonalization with overlap
     ethr =  4.30E-05,  avg # of iterations =  3.0

     negative rho (up, down):  2.730E-02 0.000E+00

     total cpu time spent up to now is      529.8 secs

     total energy              =    -757.31908620 Ry
     Harris-Foulkes estimate   =    -757.31409960 Ry
     estimated scf accuracy    <       0.02978268 Ry

     iteration #  9     ecut=    70.00 Ry     beta= 0.70
     Davidson diagonalization with overlap
     ethr =  1.41E-05,  avg # of iterations =  9.0

     negative rho (up, down):  3.493E-02 0.000E+00

     total cpu time spent up to now is      589.5 secs

     total energy              =    -757.32305121 Ry
     Harris-Foulkes estimate   =    -757.32883457 Ry
     estimated scf accuracy    <       0.02694555 Ry

     iteration # 10     ecut=    70.00 Ry     beta= 0.70
     Davidson diagonalization with overlap
     ethr =  1.28E-05,  avg # of iterations =  3.0

     negative rho (up, down):  3.600E-02 0.000E+00

     total cpu time spent up to now is      640.0 secs

     total energy              =    -757.32476112 Ry
     Harris-Foulkes estimate   =    -757.32725828 Ry
     estimated scf accuracy    <       0.02314060 Ry

     iteration # 11     ecut=    70.00 Ry     beta= 0.70
     Davidson diagonalization with overlap
     ethr =  1.10E-05,  avg # of iterations =  2.0

     negative rho (up, down):  3.444E-02 0.000E+00

     total cpu time spent up to now is      688.5 secs

     total energy              =    -757.32661390 Ry
     Harris-Foulkes estimate   =    -757.32628415 Ry
     estimated scf accuracy    <       0.01175701 Ry

     iteration # 12     ecut=    70.00 Ry     beta= 0.70
     Davidson diagonalization with overlap
     ethr =  5.57E-06,  avg # of iterations =  3.0

     negative rho (up, down):  3.332E-02 0.000E+00

     total cpu time spent up to now is      739.4 secs

     total energy              =    -757.32843817 Ry
     Harris-Foulkes estimate   =    -757.32749991 Ry
     estimated scf accuracy    <       0.00413216 Ry

     iteration # 13     ecut=    70.00 Ry     beta= 0.70
     Davidson diagonalization with overlap
     ethr =  1.96E-06,  avg # of iterations =  5.0

     negative rho (up, down):  3.389E-02 0.000E+00

     total cpu time spent up to now is      792.6 secs

     total energy              =    -757.32841882 Ry
     Harris-Foulkes estimate   =    -757.32867700 Ry
     estimated scf accuracy    <       0.00038297 Ry

     iteration # 14     ecut=    70.00 Ry     beta= 0.70
     Davidson diagonalization with overlap
     ethr =  1.82E-07,  avg # of iterations =  4.0

     negative rho (up, down):  3.361E-02 0.000E+00

     total cpu time spent up to now is      844.0 secs

     total energy              =    -757.32903565 Ry
     Harris-Foulkes estimate   =    -757.32852289 Ry
     estimated scf accuracy    <       0.00017899 Ry

     iteration # 15     ecut=    70.00 Ry     beta= 0.70
     Davidson diagonalization with overlap
     ethr =  8.48E-08,  avg # of iterations =  4.0

     negative rho (up, down):  3.382E-02 0.000E+00

     total cpu time spent up to now is      896.2 secs

     total energy              =    -757.32923484 Ry
     Harris-Foulkes estimate   =    -757.32906831 Ry
     estimated scf accuracy    <       0.00014895 Ry

     iteration # 16     ecut=    70.00 Ry     beta= 0.70
     Davidson diagonalization with overlap
     ethr =  7.06E-08,  avg # of iterations =  3.0

     negative rho (up, down):  3.395E-02 0.000E+00

     total cpu time spent up to now is      946.4 secs

     total energy              =    -757.32923949 Ry
     Harris-Foulkes estimate   =    -757.32925940 Ry
     estimated scf accuracy    <       0.00033846 Ry

     iteration # 17     ecut=    70.00 Ry     beta= 0.70
     Davidson diagonalization with overlap
     ethr =  7.06E-08,  avg # of iterations =  1.0

     negative rho (up, down):  3.402E-02 0.000E+00

     total cpu time spent up to now is      994.6 secs

     total energy              =    -757.32924773 Ry
     Harris-Foulkes estimate   =    -757.32924799 Ry
     estimated scf accuracy    <       0.00001953 Ry

     iteration # 18     ecut=    70.00 Ry     beta= 0.70
     Davidson diagonalization with overlap
     ethr =  9.26E-09,  avg # of iterations =  3.0

     negative rho (up, down):  3.409E-02 0.000E+00

     total cpu time spent up to now is     1043.3 secs

     total energy              =    -757.32924932 Ry
     Harris-Foulkes estimate   =    -757.32924950 Ry
     estimated scf accuracy    <       0.00000560 Ry

     iteration # 19     ecut=    70.00 Ry     beta= 0.70
     Davidson diagonalization with overlap
     ethr =  2.65E-09,  avg # of iterations =  2.0

     negative rho (up, down):  3.409E-02 0.000E+00

     total cpu time spent up to now is     1092.1 secs

     total energy              =    -757.32924953 Ry
     Harris-Foulkes estimate   =    -757.32924971 Ry
     estimated scf accuracy    <       0.00000209 Ry

     iteration # 20     ecut=    70.00 Ry     beta= 0.70
     Davidson diagonalization with overlap
     ethr =  9.93E-10,  avg # of iterations =  3.0

     negative rho (up, down):  3.408E-02 0.000E+00

     total cpu time spent up to now is     1140.7 secs

     total energy              =    -757.32924919 Ry
     Harris-Foulkes estimate   =    -757.32924972 Ry
     estimated scf accuracy    <       0.00000239 Ry

     iteration # 21     ecut=    70.00 Ry     beta= 0.70
     Davidson diagonalization with overlap
     ethr =  9.93E-10,  avg # of iterations =  1.0

     negative rho (up, down):  3.409E-02 0.000E+00

     total cpu time spent up to now is     1189.3 secs

     total energy              =    -757.32924960 Ry
     Harris-Foulkes estimate   =    -757.32924934 Ry
     estimated scf accuracy    <       0.00000100 Ry

     iteration # 22     ecut=    70.00 Ry     beta= 0.70
     Davidson diagonalization with overlap
     ethr =  4.75E-10,  avg # of iterations =  1.0

     negative rho (up, down):  3.410E-02 0.000E+00

     total cpu time spent up to now is     1237.4 secs

     End of self-consistent calculation

          k = 0.0000 0.0000 0.0000 ( 87777 PWs)   bands (ev):

   -62.7636 -37.8649 -37.8638 -36.4953 -19.6279 -18.7853 -18.7848 -18.7154
   -18.6732 -18.6725 -18.2311 -16.9327 -16.9315 -16.9314 -16.7897 -16.7895
   -16.5136 -16.0745 -16.0743 -15.9860 -15.8290 -15.8287 -15.0817 -13.8817
   -13.8760 -13.8754 -13.8622 -13.8622 -13.1405 -12.9171 -12.9170 -12.8968
   -12.5068 -12.5065 -12.1084 -11.6422 -11.6419 -11.5192 -11.1389 -11.1386
   -10.1492  -9.3357  -9.3355  -9.2569  -9.1785  -9.1785  -9.0925  -9.0650
    -9.0649  -9.0512  -8.4651  -8.4649  -7.8943  -7.8940  -7.8613  -7.7869
    -7.6778  -7.2547  -7.2536  -7.1087  -6.9287  -6.8971  -6.8763  -6.6862
    -6.6851  -6.6740  -6.5913  -6.5912  -6.5457  -6.4345  -6.4341  -6.3919
    -6.3874  -6.3873  -6.3339  -6.2431  -5.2603  -5.2602  -5.1218  -5.1173
    -4.9453  -4.9451  -4.8364  -4.7481  -4.6026  -4.5868  -4.5865  -4.2256
    -3.9645  -3.9635  -3.7267  -3.7264  -3.6399  -3.6269  -3.4998  -3.4996
    -2.8831  -2.2323  -2.2312  -2.2031  -2.2024  -1.7048  -1.6773  -1.6772
    -0.5446  -0.1350  -0.1349   0.9081   1.0812   1.0863   1.0874   1.8181
     2.0796   2.0798   2.5699   2.9260   2.9274   2.9903   3.4934   3.5090
     3.5241   3.7699   3.7798   3.8272   3.9110   4.0312   4.0316

     occupation numbers 
     1.0000   1.0000   1.0000   1.0000   1.0000   1.0000   1.0000   1.0000
     1.0000   1.0000   1.0000   1.0000   1.0000   1.0000   1.0000   1.0000
     1.0000   1.0000   1.0000   1.0000   1.0000   1.0000   1.0000   1.0000
     1.0000   1.0000   1.0000   1.0000   1.0000   1.0000   1.0000   1.0000
     1.0000   1.0000   1.0000   1.0000   1.0000   1.0000   1.0000   1.0000
     1.0000   1.0000   1.0000   1.0000   1.0000   1.0000   1.0000   1.0000
     1.0000   1.0000   1.0000   1.0000   1.0000   1.0000   1.0000   1.0000
     1.0000   1.0000   1.0000   1.0000   1.0000   1.0000   1.0000   1.0000
     1.0000   1.0000   1.0000   1.0000   1.0000   1.0000   1.0000   1.0000
     1.0000   1.0000   1.0000   1.0000   1.0000   1.0000   1.0000   1.0000
     1.0000   1.0000   1.0000   1.0000   1.0000   1.0000   1.0000   1.0000
     1.0000   1.0000   1.0000   1.0000   1.0000   1.0000   1.0000   1.0000
     1.0000   1.0000   1.0000   1.0000   1.0000   1.0000   1.0000   1.0000
     1.0000   0.2528   0.2472   0.0000   0.0000   0.0000   0.0000   0.0000
     0.0000   0.0000   0.0000   0.0000   0.0000   0.0000   0.0000   0.0000
     0.0000   0.0000   0.0000   0.0000   0.0000   0.0000   0.0000

     the Fermi energy is    -0.1383 ev

!    total energy              =    -757.32924937 Ry
     Harris-Foulkes estimate   =    -757.32924967 Ry
     estimated scf accuracy    <       0.00000039 Ry

     The total energy is the sum of the following terms:

     one-electron contribution =   -2583.24608233 Ry
     hartree contribution      =    1338.40245643 Ry
     xc contribution           =    -252.66111488 Ry
     ewald contribution        =     740.17610487 Ry
     smearing contrib. (-TS)   =      -0.00061347 Ry

     convergence has been achieved in  22 iterations

     Writing output data file gr-12-baricentro.save/

     init_run     :     46.59s CPU     47.73s WALL (       1 calls)
     electrons    :   1152.20s CPU   1188.63s WALL (       1 calls)

     Called by init_run:
     wfcinit      :     20.73s CPU     20.86s WALL (       1 calls)
     wfcinit:atom :      0.02s CPU      0.04s WALL (       1 calls)
     wfcinit:wfcr :     20.52s CPU     20.61s WALL (       1 calls)
     potinit      :     11.84s CPU     12.20s WALL (       1 calls)
     hinit0       :      9.51s CPU      9.55s WALL (       1 calls)

     Called by electrons:
     c_bands      :    704.23s CPU    708.20s WALL (      22 calls)
     sum_band     :    221.05s CPU    233.48s WALL (      22 calls)
     v_of_rho     :    139.40s CPU    147.83s WALL (      23 calls)
     v_h          :      1.61s CPU      1.65s WALL (      23 calls)
     v_xc         :    137.79s CPU    146.18s WALL (      23 calls)
     newd         :     90.73s CPU    103.04s WALL (      23 calls)
     mix_rho      :      4.38s CPU      4.45s WALL (      22 calls)

     Called by c_bands:
     init_us_2    :      1.91s CPU      1.94s WALL (      45 calls)
     cegterg      :    699.08s CPU    703.03s WALL (      22 calls)

     Called by sum_band:
     sum_band:bec :      0.02s CPU      0.02s WALL (      22 calls)
     addusdens    :    135.99s CPU    147.70s WALL (      22 calls)

     Called by *egterg:
     h_psi        :    367.22s CPU    369.97s WALL (     102 calls)
     s_psi        :    123.09s CPU    123.18s WALL (     102 calls)
     g_psi        :      0.41s CPU      0.41s WALL (      79 calls)
     cdiaghg      :      7.06s CPU      7.07s WALL (     101 calls)
     cegterg:over :     85.42s CPU     85.47s WALL (      79 calls)
     cegterg:upda :     53.28s CPU     53.58s WALL (      79 calls)
     cegterg:last :     41.95s CPU     41.95s WALL (      23 calls)

     Called by h_psi:
     h_psi:pot    :    366.82s CPU    369.07s WALL (     102 calls)
     h_psi:calbec :    123.87s CPU    123.92s WALL (     102 calls)
     vloc_psi     :    120.18s CPU    122.34s WALL (     102 calls)
     add_vuspsi   :    122.77s CPU    122.80s WALL (     102 calls)

     General routines
     calbec       :    175.87s CPU    175.97s WALL (     124 calls)
     fft          :     77.59s CPU     80.42s WALL (    1447 calls)
     ffts         :      0.83s CPU      0.84s WALL (      45 calls)
     fftw         :    127.66s CPU    130.17s WALL (   16126 calls)
     interpolate  :      1.92s CPU      1.95s WALL (      23 calls)

     Parallel routines
     fft_scatt_xy :     35.54s CPU     36.02s WALL (   17618 calls)
     fft_scatt_yz :     70.94s CPU     74.70s WALL (   17618 calls)

     PWSCF        :  20m 0.01s CPU  20m37.82s WALL


   This run was terminated on:  10:51: 4  21Jul2022            

=------------------------------------------------------------------------------=
   JOB DONE.
=------------------------------------------------------------------------------=
