
     Program PWSCF v.6.4.1 starts on 21Jul2022 at  9:16:39 

     This program is part of the open-source Quantum ESPRESSO suite
     for quantum simulation of materials; please cite
         "P. Giannozzi et al., J. Phys.:Condens. Matter 21 395502 (2009);
         "P. Giannozzi et al., J. Phys.:Condens. Matter 29 465901 (2017);
          URL http://www.quantum-espresso.org", 
     in publications or presentations arising from this work. More details at
     http://www.quantum-espresso.org/quote

     Parallel version (MPI), running on     6 processors

     MPI processes distributed on     1 nodes
     R & G space division:  proc/nbgrp/npool/nimage =       6
     Reading input from distance-4.5.in

     Current dimensions of program PWSCF are:
     Max number of different atomic species (ntypx) = 10
     Max number of k-points (npk) =  40000
     Max angular momentum in pseudopotentials (lmaxx) =  3

     IMPORTANT: XC functional enforced from input :
     Exchange-correlation      = RVV10 ( 1  4 13  4 3 0)
     Any further DFT definition will be discarded
     Please, verify this is what you really want

               file H.pbe-rrkjus.UPF: wavefunction(s)  1S renormalized
               file V.pbe-spnl-rrkjus_psl.1.0.0.UPF: wavefunction(s)  3P 3D renormalized

     Subspace diagonalization in iterative solution of the eigenvalue problem:
     a serial algorithm will be used


     Parallelization info
     --------------------
     sticks:   dense  smooth     PW     G-vecs:    dense   smooth      PW
     Min        3051    1746    432               270999   117096   14629
     Max        3053    1747    437               271001   117099   14630
     Sum       18313   10477   2611              1626001   702581   87777



     bravais-lattice index     =            4
     lattice parameter (alat)  =      23.2937  a.u.
     unit-cell volume          =    8879.8548 (a.u.)^3
     number of atoms/cell      =           52
     number of atomic types    =            3
     number of electrons       =       211.00
     number of Kohn-Sham states=          127
     kinetic-energy cutoff     =      70.0000  Ry
     charge density cutoff     =     490.0000  Ry
     convergence threshold     =      1.0E-06
     mixing beta               =       0.7000
     number of iterations used =            8  plain     mixing
     Exchange-correlation      = RVV10 ( 1  4 13  4 3 0)

     celldm(1)=  23.293684  celldm(2)=   0.000000  celldm(3)=   0.811261
     celldm(4)=   0.000000  celldm(5)=   0.000000  celldm(6)=   0.000000

     crystal axes: (cart. coord. in units of alat)
               a(1) = (   1.000000   0.000000   0.000000 )  
               a(2) = (  -0.500000   0.866025   0.000000 )  
               a(3) = (   0.000000   0.000000   0.811261 )  

     reciprocal axes: (cart. coord. in units 2 pi/alat)
               b(1) = (  1.000000  0.577350 -0.000000 )  
               b(2) = (  0.000000  1.154701  0.000000 )  
               b(3) = (  0.000000 -0.000000  1.232649 )  


     PseudoPot. # 1 for H  read from file:
     /home/cristian/Escritorio/Proyecto_Grafeno/pseudopotenciales/H.pbe-rrkjus.UPF
     MD5 check sum: 7cc9d459525c9a0585f487a71c3c9563
     Pseudo is Ultrasoft, Zval =  1.0
     Generated by new atomic code, or converted to UPF format
     Using radial grid of 1061 points,  2 beta functions with: 
                l(1) =   0
                l(2) =   0
     Q(r) pseudized with 0 coefficients 


     PseudoPot. # 2 for C  read from file:
     /home/cristian/Escritorio/Proyecto_Grafeno/pseudopotenciales/C.pbe-n-rrkjus_psl.1.0.0.UPF
     MD5 check sum: 1fdd950c42eb37d8afe3dd2f8d12311e
     Pseudo is Ultrasoft + core correction, Zval =  4.0
     Generated using "atomic" code by A. Dal Corso v.6.3MaX
     Using radial grid of 1073 points,  4 beta functions with: 
                l(1) =   0
                l(2) =   0
                l(3) =   1
                l(4) =   1
     Q(r) pseudized with 0 coefficients 


     PseudoPot. # 3 for V  read from file:
     /home/cristian/Escritorio/Proyecto_Grafeno/pseudopotenciales/V.pbe-spnl-rrkjus_psl.1.0.0.UPF
     MD5 check sum: 79b3eb63147daf0b665d9f1bcc691206
     Pseudo is Ultrasoft + core correction, Zval = 13.0
     Generated using "atomic" code by A. Dal Corso v.6.2.2
     Using radial grid of 1181 points,  6 beta functions with: 
                l(1) =   0
                l(2) =   0
                l(3) =   1
                l(4) =   1
                l(5) =   2
                l(6) =   2
     Q(r) pseudized with 0 coefficients 


     vdW kernel table read from file rVV10_kernel_table
     MD5 check sum: b8e2538accc0c0b3206b45ba4daaba6c

     atomic species   valence    mass     pseudopotential
        H              1.00     1.00794     H ( 1.00)
        C              4.00    12.01070     C ( 1.00)
        V             13.00    50.94150     V ( 1.00)

     No symmetry found


                                    s                        frac. trans.

      isym =  1     identity                                     

 cryst.   s( 1) = (     1          0          0      )
                  (     0          1          0      )
                  (     0          0          1      )

 cart.    s( 1) = (  1.0000000  0.0000000  0.0000000 )
                  (  0.0000000  1.0000000  0.0000000 )
                  (  0.0000000  0.0000000  1.0000000 )


     point group C_1 (1)    
     there are  1 classes
     the character table:

       E    
A      1.00

     the symmetry operations in each class and the name of the first element:

     E        1
          identity                                               

   Cartesian axes

     site n.     atom                  positions (alat units)
         1           H   tau(   1) = (   0.2666667   0.4618802   0.3650675  )
         2           H   tau(   2) = (   0.2666667   0.4618802   0.4260802  )
         3           C   tau(   3) = (   0.0000000   0.0000000   0.0000000  )
         4           C   tau(   4) = (   0.0000000   0.1154701   0.0000000  )
         5           C   tau(   5) = (  -0.1000000   0.1732051   0.0000000  )
         6           C   tau(   6) = (  -0.1000000   0.2886751   0.0000000  )
         7           C   tau(   7) = (  -0.2000000   0.3464102   0.0000000  )
         8           C   tau(   8) = (  -0.2000000   0.4618802   0.0000000  )
         9           C   tau(   9) = (  -0.3000000   0.5196152   0.0000000  )
        10           C   tau(  10) = (  -0.3000000   0.6350853   0.0000000  )
        11           C   tau(  11) = (  -0.4000000   0.6928203   0.0000000  )
        12           C   tau(  12) = (  -0.4000000   0.8082904   0.0000000  )
        13           C   tau(  13) = (   0.2000000   0.0000000   0.0000000  )
        14           C   tau(  14) = (   0.2000000   0.1154701   0.0000000  )
        15           C   tau(  15) = (   0.1000000   0.1732051   0.0000000  )
        16           C   tau(  16) = (   0.1000000   0.2886751   0.0000000  )
        17           C   tau(  17) = (   0.0000000   0.3464102   0.0000000  )
        18           C   tau(  18) = (   0.0000000   0.4618802   0.0000000  )
        19           C   tau(  19) = (  -0.1000000   0.5196152   0.0000000  )
        20           C   tau(  20) = (  -0.1000000   0.6350853   0.0000000  )
        21           C   tau(  21) = (  -0.2000000   0.6928203   0.0000000  )
        22           C   tau(  22) = (  -0.2000000   0.8082904   0.0000000  )
        23           C   tau(  23) = (   0.4000000   0.0000000   0.0000000  )
        24           C   tau(  24) = (   0.4000000   0.1154701   0.0000000  )
        25           C   tau(  25) = (   0.3000000   0.1732051   0.0000000  )
        26           C   tau(  26) = (   0.3000000   0.2886751   0.0000000  )
        27           C   tau(  27) = (   0.2000000   0.3464102   0.0000000  )
        28           V   tau(  28) = (   0.2000000   0.4618802   0.0000000  )
        29           C   tau(  29) = (   0.1000000   0.5196152   0.0000000  )
        30           C   tau(  30) = (   0.1000000   0.6350853   0.0000000  )
        31           C   tau(  31) = (   0.0000000   0.6928203   0.0000000  )
        32           C   tau(  32) = (   0.0000000   0.8082904   0.0000000  )
        33           C   tau(  33) = (   0.6000000   0.0000000   0.0000000  )
        34           C   tau(  34) = (   0.6000000   0.1154701   0.0000000  )
        35           C   tau(  35) = (   0.5000000   0.1732051   0.0000000  )
        36           C   tau(  36) = (   0.5000000   0.2886751   0.0000000  )
        37           C   tau(  37) = (   0.4000000   0.3464102   0.0000000  )
        38           C   tau(  38) = (   0.4000000   0.4618802   0.0000000  )
        39           C   tau(  39) = (   0.3000000   0.5196152   0.0000000  )
        40           C   tau(  40) = (   0.3000000   0.6350853   0.0000000  )
        41           C   tau(  41) = (   0.2000000   0.6928203   0.0000000  )
        42           C   tau(  42) = (   0.2000000   0.8082904   0.0000000  )
        43           C   tau(  43) = (   0.8000000   0.0000000   0.0000000  )
        44           C   tau(  44) = (   0.8000000   0.1154701   0.0000000  )
        45           C   tau(  45) = (   0.7000000   0.1732051   0.0000000  )
        46           C   tau(  46) = (   0.7000000   0.2886751   0.0000000  )
        47           C   tau(  47) = (   0.6000000   0.3464102   0.0000000  )
        48           C   tau(  48) = (   0.6000000   0.4618802   0.0000000  )
        49           C   tau(  49) = (   0.5000000   0.5196152   0.0000000  )
        50           C   tau(  50) = (   0.5000000   0.6350853   0.0000000  )
        51           C   tau(  51) = (   0.4000000   0.6928203   0.0000000  )
        52           C   tau(  52) = (   0.4000000   0.8082904   0.0000000  )

   Crystallographic axes

     site n.     atom                  positions (cryst. coord.)
         1           H   tau(   1) = (  0.5333333  0.5333333  0.4500000  )
         2           H   tau(   2) = (  0.5333333  0.5333333  0.5252072  )
         3           C   tau(   3) = (  0.0000000  0.0000000  0.0000000  )
         4           C   tau(   4) = (  0.0666667  0.1333333  0.0000000  )
         5           C   tau(   5) = (  0.0000000  0.2000000  0.0000000  )
         6           C   tau(   6) = (  0.0666667  0.3333333  0.0000000  )
         7           C   tau(   7) = (  0.0000000  0.4000000  0.0000000  )
         8           C   tau(   8) = (  0.0666667  0.5333333  0.0000000  )
         9           C   tau(   9) = (  0.0000000  0.6000000  0.0000000  )
        10           C   tau(  10) = (  0.0666667  0.7333333  0.0000000  )
        11           C   tau(  11) = (  0.0000000  0.8000000  0.0000000  )
        12           C   tau(  12) = (  0.0666667  0.9333333  0.0000000  )
        13           C   tau(  13) = (  0.2000000  0.0000000  0.0000000  )
        14           C   tau(  14) = (  0.2666667  0.1333333  0.0000000  )
        15           C   tau(  15) = (  0.2000000  0.2000000  0.0000000  )
        16           C   tau(  16) = (  0.2666667  0.3333333  0.0000000  )
        17           C   tau(  17) = (  0.2000000  0.4000000  0.0000000  )
        18           C   tau(  18) = (  0.2666667  0.5333333  0.0000000  )
        19           C   tau(  19) = (  0.2000000  0.6000000  0.0000000  )
        20           C   tau(  20) = (  0.2666667  0.7333333  0.0000000  )
        21           C   tau(  21) = (  0.2000000  0.8000000  0.0000000  )
        22           C   tau(  22) = (  0.2666667  0.9333333  0.0000000  )
        23           C   tau(  23) = (  0.4000000  0.0000000  0.0000000  )
        24           C   tau(  24) = (  0.4666667  0.1333333  0.0000000  )
        25           C   tau(  25) = (  0.4000000  0.2000000  0.0000000  )
        26           C   tau(  26) = (  0.4666667  0.3333333  0.0000000  )
        27           C   tau(  27) = (  0.4000000  0.4000000  0.0000000  )
        28           V   tau(  28) = (  0.4666667  0.5333333  0.0000000  )
        29           C   tau(  29) = (  0.4000000  0.6000000  0.0000000  )
        30           C   tau(  30) = (  0.4666667  0.7333333  0.0000000  )
        31           C   tau(  31) = (  0.4000000  0.8000000  0.0000000  )
        32           C   tau(  32) = (  0.4666667  0.9333333  0.0000000  )
        33           C   tau(  33) = (  0.6000000  0.0000000  0.0000000  )
        34           C   tau(  34) = (  0.6666667  0.1333333  0.0000000  )
        35           C   tau(  35) = (  0.6000000  0.2000000  0.0000000  )
        36           C   tau(  36) = (  0.6666667  0.3333333  0.0000000  )
        37           C   tau(  37) = (  0.6000000  0.4000000  0.0000000  )
        38           C   tau(  38) = (  0.6666667  0.5333333  0.0000000  )
        39           C   tau(  39) = (  0.6000000  0.6000000  0.0000000  )
        40           C   tau(  40) = (  0.6666667  0.7333333  0.0000000  )
        41           C   tau(  41) = (  0.6000000  0.8000000  0.0000000  )
        42           C   tau(  42) = (  0.6666667  0.9333333  0.0000000  )
        43           C   tau(  43) = (  0.8000000  0.0000000  0.0000000  )
        44           C   tau(  44) = (  0.8666667  0.1333333  0.0000000  )
        45           C   tau(  45) = (  0.8000000  0.2000000  0.0000000  )
        46           C   tau(  46) = (  0.8666667  0.3333333  0.0000000  )
        47           C   tau(  47) = (  0.8000000  0.4000000  0.0000000  )
        48           C   tau(  48) = (  0.8666667  0.5333333  0.0000000  )
        49           C   tau(  49) = (  0.8000000  0.6000000  0.0000000  )
        50           C   tau(  50) = (  0.8666667  0.7333333  0.0000000  )
        51           C   tau(  51) = (  0.8000000  0.8000000  0.0000000  )
        52           C   tau(  52) = (  0.8666667  0.9333333  0.0000000  )

     number of k points=     1  Marzari-Vanderbilt smearing, width (Ry)=  0.0010
                       cart. coord. in units 2pi/alat
        k(    1) = (   0.0000000   0.0000000   0.0000000), wk =   2.0000000

                       cryst. coord.
        k(    1) = (   0.0000000   0.0000000   0.0000000), wk =   2.0000000

     Dense  grid:  1626001 G-vectors     FFT dimensions: ( 180, 180, 135)

     Smooth grid:   702581 G-vectors     FFT dimensions: ( 125, 125, 108)

     Dynamical RAM for                 wfc:      28.36 MB

     Dynamical RAM for     wfc (w. buffer):      28.36 MB

     Dynamical RAM for           str. fact:      12.41 MB

     Dynamical RAM for           local pot:       0.00 MB

     Dynamical RAM for          nlocal pot:      92.46 MB

     Dynamical RAM for                qrad:      19.73 MB

     Dynamical RAM for          rho,v,vnew:      29.46 MB

     Dynamical RAM for               rhoin:       9.82 MB

     Dynamical RAM for            rho*nmix:      66.16 MB

     Dynamical RAM for           G-vectors:      16.40 MB

     Dynamical RAM for          h,s,v(r/c):      11.81 MB

     Dynamical RAM for          <psi|beta>:       0.80 MB

     Dynamical RAM for                 psi:     113.46 MB

     Dynamical RAM for                hpsi:     113.46 MB

     Dynamical RAM for                spsi:     113.46 MB

     Dynamical RAM for      wfcinit/wfcrot:      93.90 MB

     Dynamical RAM for           addusdens:     971.75 MB

     Estimated static dynamical RAM per process >     319.78 MB

     Estimated max dynamical RAM per process >       1.26 GB

     Estimated total dynamical RAM >       7.57 GB

     Check: negative core charge=   -0.000002

     Initial potential from superposition of free atoms

     starting charge  210.80465, renormalised to  211.00000

     negative rho (up, down):  1.135E-04 0.000E+00


---------------------------------------------------------------------------------
Carrying out rVV10 run using the following parameters:
Nqs =      20    Nr_points =    1024   r_max =   100.000
b_value =  6.30000    beta =  0.00901
     q_mesh =  0.00010000  0.00030000  0.00058939  0.00100810
               0.00161396  0.00249058  0.00375900  0.00559430
               0.00824984  0.01209221  0.01765183  0.02569619
               0.03733578  0.05417739  0.07854596  0.11380545
               0.16482331  0.23864234  0.34545298  0.50000000

Gradients computed in Reciprocal space

---------------------------------------------------------------------------------


     Starting wfcs are  208 randomized atomic wfcs

     total cpu time spent up to now is       49.5 secs

     Self-consistent Calculation

     iteration #  1     ecut=    70.00 Ry     beta= 0.70
     Davidson diagonalization with overlap
     ethr =  1.00E-02,  avg # of iterations =  3.0

     negative rho (up, down):  2.891E-03 0.000E+00

     total cpu time spent up to now is      115.6 secs

     total energy              =    -755.30931266 Ry
     Harris-Foulkes estimate   =    -760.48003582 Ry
     estimated scf accuracy    <       7.90873709 Ry

     iteration #  2     ecut=    70.00 Ry     beta= 0.70
     Davidson diagonalization with overlap
     ethr =  3.75E-03,  avg # of iterations =  8.0

     negative rho (up, down):  1.862E-02 0.000E+00

     total cpu time spent up to now is      180.6 secs

     total energy              =    -748.70227031 Ry
     Harris-Foulkes estimate   =    -761.18876165 Ry
     estimated scf accuracy    <      41.50429446 Ry

     iteration #  3     ecut=    70.00 Ry     beta= 0.70
     Davidson diagonalization with overlap
     ethr =  3.75E-03,  avg # of iterations =  5.0

     negative rho (up, down):  3.625E-03 0.000E+00

     total cpu time spent up to now is      262.2 secs

     total energy              =    -755.35717550 Ry
     Harris-Foulkes estimate   =    -759.78010526 Ry
     estimated scf accuracy    <      23.37705389 Ry

     iteration #  4     ecut=    70.00 Ry     beta= 0.70
     Davidson diagonalization with overlap
     ethr =  3.75E-03,  avg # of iterations =  4.0

     negative rho (up, down):  3.734E-02 0.000E+00

     total cpu time spent up to now is      313.8 secs

     total energy              =    -757.11998110 Ry
     Harris-Foulkes estimate   =    -757.74732508 Ry
     estimated scf accuracy    <       1.81369843 Ry

     iteration #  5     ecut=    70.00 Ry     beta= 0.70
     Davidson diagonalization with overlap
     ethr =  8.60E-04,  avg # of iterations =  5.0

     negative rho (up, down):  5.846E-02 0.000E+00

     total cpu time spent up to now is      368.4 secs

     total energy              =    -757.28205748 Ry
     Harris-Foulkes estimate   =    -757.35787171 Ry
     estimated scf accuracy    <       0.29682549 Ry

     iteration #  6     ecut=    70.00 Ry     beta= 0.70
     Davidson diagonalization with overlap
     ethr =  1.41E-04,  avg # of iterations =  3.0

     negative rho (up, down):  5.368E-02 0.000E+00

     total cpu time spent up to now is      419.7 secs

     total energy              =    -757.29669796 Ry
     Harris-Foulkes estimate   =    -757.32861217 Ry
     estimated scf accuracy    <       0.20713789 Ry

     iteration #  7     ecut=    70.00 Ry     beta= 0.70
     Davidson diagonalization with overlap
     ethr =  9.82E-05,  avg # of iterations =  3.0

     negative rho (up, down):  3.835E-02 0.000E+00

     total cpu time spent up to now is      468.8 secs

     total energy              =    -757.30379298 Ry
     Harris-Foulkes estimate   =    -757.31590775 Ry
     estimated scf accuracy    <       0.11665534 Ry

     iteration #  8     ecut=    70.00 Ry     beta= 0.70
     Davidson diagonalization with overlap
     ethr =  5.53E-05,  avg # of iterations =  3.0

     negative rho (up, down):  2.969E-02 0.000E+00

     total cpu time spent up to now is      517.9 secs

     total energy              =    -757.31355116 Ry
     Harris-Foulkes estimate   =    -757.31335231 Ry
     estimated scf accuracy    <       0.04274958 Ry

     iteration #  9     ecut=    70.00 Ry     beta= 0.70
     Davidson diagonalization with overlap
     ethr =  2.03E-05,  avg # of iterations =  9.0

     negative rho (up, down):  3.408E-02 0.000E+00

     total cpu time spent up to now is      573.2 secs

     total energy              =    -757.31784006 Ry
     Harris-Foulkes estimate   =    -757.32339668 Ry
     estimated scf accuracy    <       0.03401471 Ry

     iteration # 10     ecut=    70.00 Ry     beta= 0.70
     Davidson diagonalization with overlap
     ethr =  1.61E-05,  avg # of iterations =  3.0

     negative rho (up, down):  3.378E-02 0.000E+00

     total cpu time spent up to now is      622.3 secs

     total energy              =    -757.32144796 Ry
     Harris-Foulkes estimate   =    -757.32307527 Ry
     estimated scf accuracy    <       0.02471074 Ry

     iteration # 11     ecut=    70.00 Ry     beta= 0.70
     Davidson diagonalization with overlap
     ethr =  1.17E-05,  avg # of iterations =  3.0

     negative rho (up, down):  3.298E-02 0.000E+00

     total cpu time spent up to now is      672.8 secs

     total energy              =    -757.32359970 Ry
     Harris-Foulkes estimate   =    -757.32315791 Ry
     estimated scf accuracy    <       0.01315023 Ry

     iteration # 12     ecut=    70.00 Ry     beta= 0.70
     Davidson diagonalization with overlap
     ethr =  6.23E-06,  avg # of iterations =  4.0

     negative rho (up, down):  3.295E-02 0.000E+00

     total cpu time spent up to now is      723.8 secs

     total energy              =    -757.32541755 Ry
     Harris-Foulkes estimate   =    -757.32459192 Ry
     estimated scf accuracy    <       0.00430663 Ry

     iteration # 13     ecut=    70.00 Ry     beta= 0.70
     Davidson diagonalization with overlap
     ethr =  2.04E-06,  avg # of iterations = 15.0

     negative rho (up, down):  3.339E-02 0.000E+00

     total cpu time spent up to now is      780.2 secs

     total energy              =    -757.32514049 Ry
     Harris-Foulkes estimate   =    -757.32568750 Ry
     estimated scf accuracy    <       0.00115178 Ry

     iteration # 14     ecut=    70.00 Ry     beta= 0.70
     Davidson diagonalization with overlap
     ethr =  5.46E-07,  avg # of iterations =  3.0

     negative rho (up, down):  3.349E-02 0.000E+00

     total cpu time spent up to now is      830.8 secs

     total energy              =    -757.32536643 Ry
     Harris-Foulkes estimate   =    -757.32530068 Ry
     estimated scf accuracy    <       0.00137721 Ry

     iteration # 15     ecut=    70.00 Ry     beta= 0.70
     Davidson diagonalization with overlap
     ethr =  5.46E-07,  avg # of iterations =  1.0

     negative rho (up, down):  3.360E-02 0.000E+00

     total cpu time spent up to now is      879.2 secs

     total energy              =    -757.32562630 Ry
     Harris-Foulkes estimate   =    -757.32545009 Ry
     estimated scf accuracy    <       0.00050542 Ry

     iteration # 16     ecut=    70.00 Ry     beta= 0.70
     Davidson diagonalization with overlap
     ethr =  2.40E-07,  avg # of iterations =  3.0

     negative rho (up, down):  3.380E-02 0.000E+00

     total cpu time spent up to now is      929.3 secs

     total energy              =    -757.32567191 Ry
     Harris-Foulkes estimate   =    -757.32564595 Ry
     estimated scf accuracy    <       0.00001632 Ry

     iteration # 17     ecut=    70.00 Ry     beta= 0.70
     Davidson diagonalization with overlap
     ethr =  7.74E-09,  avg # of iterations =  4.0

     negative rho (up, down):  3.386E-02 0.000E+00

     total cpu time spent up to now is      980.4 secs

     total energy              =    -757.32567307 Ry
     Harris-Foulkes estimate   =    -757.32567533 Ry
     estimated scf accuracy    <       0.00002229 Ry

     iteration # 18     ecut=    70.00 Ry     beta= 0.70
     Davidson diagonalization with overlap
     ethr =  7.74E-09,  avg # of iterations =  1.0

     negative rho (up, down):  3.389E-02 0.000E+00

     total cpu time spent up to now is     1028.8 secs

     total energy              =    -757.32567385 Ry
     Harris-Foulkes estimate   =    -757.32567392 Ry
     estimated scf accuracy    <       0.00000250 Ry

     iteration # 19     ecut=    70.00 Ry     beta= 0.70
     Davidson diagonalization with overlap
     ethr =  1.18E-09,  avg # of iterations =  3.0

     negative rho (up, down):  3.392E-02 0.000E+00

     total cpu time spent up to now is     1077.6 secs

     End of self-consistent calculation

          k = 0.0000 0.0000 0.0000 ( 87777 PWs)   bands (ev):

   -62.7732 -37.8733 -37.8731 -36.5057 -19.6343 -18.7917 -18.7917 -18.7213
   -18.6795 -18.6795 -18.2383 -16.9394 -16.9381 -16.9380 -16.7962 -16.7962
   -16.5197 -16.0813 -16.0811 -15.9924 -15.8357 -15.8356 -15.0885 -13.8888
   -13.8827 -13.8826 -13.8685 -13.8684 -13.1468 -12.9238 -12.9237 -12.9034
   -12.5132 -12.5131 -12.1149 -11.6488 -11.6487 -11.5259 -11.1456 -11.1455
   -10.1556  -9.3426  -9.3425  -9.2640  -9.1853  -9.1852  -9.0989  -9.0713
    -9.0712  -9.0573  -8.4715  -8.4715  -7.9010  -7.9010  -7.8678  -7.7851
    -7.6845  -7.2601  -7.2601  -6.9361  -6.9357  -6.8990  -6.7052  -6.6923
    -6.6920  -6.6861  -6.5979  -6.5978  -6.5529  -6.4409  -6.4408  -6.3982
    -6.3939  -6.3938  -6.3403  -6.2900  -5.2667  -5.2666  -5.1286  -5.1280
    -4.9516  -4.9516  -4.8431  -4.7547  -4.6092  -4.5932  -4.5929  -4.2349
    -3.9702  -3.9701  -3.7331  -3.7328  -3.6462  -3.6368  -3.5061  -3.5060
    -2.8952  -2.2381  -2.2381  -2.2114  -2.2113  -1.7118  -1.6834  -1.6832
    -0.5526  -0.1416  -0.1415   0.8677   1.0745   1.0809   1.0812   1.8139
     2.0736   2.0736   2.6356   2.9208   2.9211   2.9837   3.3919   3.5144
     3.5304   3.7724   3.7816   3.8288   3.8743   4.0258   4.0260

     occupation numbers 
     1.0000   1.0000   1.0000   1.0000   1.0000   1.0000   1.0000   1.0000
     1.0000   1.0000   1.0000   1.0000   1.0000   1.0000   1.0000   1.0000
     1.0000   1.0000   1.0000   1.0000   1.0000   1.0000   1.0000   1.0000
     1.0000   1.0000   1.0000   1.0000   1.0000   1.0000   1.0000   1.0000
     1.0000   1.0000   1.0000   1.0000   1.0000   1.0000   1.0000   1.0000
     1.0000   1.0000   1.0000   1.0000   1.0000   1.0000   1.0000   1.0000
     1.0000   1.0000   1.0000   1.0000   1.0000   1.0000   1.0000   1.0000
     1.0000   1.0000   1.0000   1.0000   1.0000   1.0000   1.0000   1.0000
     1.0000   1.0000   1.0000   1.0000   1.0000   1.0000   1.0000   1.0000
     1.0000   1.0000   1.0000   1.0000   1.0000   1.0000   1.0000   1.0000
     1.0000   1.0000   1.0000   1.0000   1.0000   1.0000   1.0000   1.0000
     1.0000   1.0000   1.0000   1.0000   1.0000   1.0000   1.0000   1.0000
     1.0000   1.0000   1.0000   1.0000   1.0000   1.0000   1.0000   1.0000
     1.0000   0.2521   0.2479   0.0000   0.0000   0.0000   0.0000   0.0000
     0.0000   0.0000   0.0000   0.0000   0.0000   0.0000   0.0000   0.0000
     0.0000   0.0000   0.0000   0.0000   0.0000   0.0000   0.0000

     the Fermi energy is    -0.1449 ev

!    total energy              =    -757.32567369 Ry
     Harris-Foulkes estimate   =    -757.32567399 Ry
     estimated scf accuracy    <       0.00000033 Ry

     The total energy is the sum of the following terms:

     one-electron contribution =   -2567.49211624 Ry
     hartree contribution      =    1330.49168457 Ry
     xc contribution           =    -252.65589256 Ry
     ewald contribution        =     732.33126402 Ry
     smearing contrib. (-TS)   =      -0.00061348 Ry

     convergence has been achieved in  19 iterations

     Writing output data file gr-12-baricentro.save/

     init_run     :     47.27s CPU     48.43s WALL (       1 calls)
     electrons    :    996.98s CPU   1028.14s WALL (       1 calls)

     Called by init_run:
     wfcinit      :     20.84s CPU     21.00s WALL (       1 calls)
     wfcinit:atom :      0.03s CPU      0.05s WALL (       1 calls)
     wfcinit:wfcr :     20.64s CPU     20.74s WALL (       1 calls)
     potinit      :     12.16s CPU     12.51s WALL (       1 calls)
     hinit0       :      9.72s CPU      9.77s WALL (       1 calls)

     Called by electrons:
     c_bands      :    610.35s CPU    613.74s WALL (      19 calls)
     sum_band     :    190.50s CPU    201.39s WALL (      19 calls)
     v_of_rho     :    121.00s CPU    128.37s WALL (      20 calls)
     v_h          :      1.36s CPU      1.43s WALL (      20 calls)
     v_xc         :    119.63s CPU    126.94s WALL (      20 calls)
     newd         :     79.40s CPU     89.60s WALL (      20 calls)
     mix_rho      :      3.65s CPU      3.74s WALL (      19 calls)

     Called by c_bands:
     init_us_2    :      1.68s CPU      1.73s WALL (      39 calls)
     cegterg      :    606.09s CPU    609.46s WALL (      19 calls)

     Called by sum_band:
     sum_band:bec :      0.01s CPU      0.02s WALL (      19 calls)
     addusdens    :    117.21s CPU    127.55s WALL (      19 calls)

     Called by *egterg:
     h_psi        :    322.81s CPU    325.24s WALL (     103 calls)
     s_psi        :    108.36s CPU    108.42s WALL (     103 calls)
     g_psi        :      0.35s CPU      0.35s WALL (      83 calls)
     cdiaghg      :      7.73s CPU      7.74s WALL (     102 calls)
     cegterg:over :     74.26s CPU     74.30s WALL (      83 calls)
     cegterg:upda :     46.98s CPU     47.25s WALL (      83 calls)
     cegterg:last :     31.19s CPU     31.20s WALL (      19 calls)

     Called by h_psi:
     h_psi:pot    :    322.43s CPU    324.45s WALL (     103 calls)
     h_psi:calbec :    108.24s CPU    108.34s WALL (     103 calls)
     vloc_psi     :    105.49s CPU    107.36s WALL (     103 calls)
     add_vuspsi   :    108.70s CPU    108.75s WALL (     103 calls)

     General routines
     calbec       :    153.13s CPU    153.26s WALL (     122 calls)
     fft          :     67.18s CPU     70.00s WALL (    1258 calls)
     ffts         :      0.69s CPU      0.73s WALL (      39 calls)
     fftw         :    111.59s CPU    113.66s WALL (   14063 calls)
     interpolate  :      1.62s CPU      1.69s WALL (      20 calls)

     Parallel routines
     fft_scatt_xy :     31.55s CPU     31.97s WALL (   15360 calls)
     fft_scatt_yz :     60.21s CPU     63.73s WALL (   15360 calls)

     PWSCF        :  17m25.44s CPU  17m58.01s WALL


   This run was terminated on:   9:34:37  21Jul2022            

=------------------------------------------------------------------------------=
   JOB DONE.
=------------------------------------------------------------------------------=
