
     Program PWSCF v.6.4.1 starts on 21Jul2022 at 12: 5:52 

     This program is part of the open-source Quantum ESPRESSO suite
     for quantum simulation of materials; please cite
         "P. Giannozzi et al., J. Phys.:Condens. Matter 21 395502 (2009);
         "P. Giannozzi et al., J. Phys.:Condens. Matter 29 465901 (2017);
          URL http://www.quantum-espresso.org", 
     in publications or presentations arising from this work. More details at
     http://www.quantum-espresso.org/quote

     Parallel version (MPI), running on     6 processors

     MPI processes distributed on     1 nodes
     R & G space division:  proc/nbgrp/npool/nimage =       6
     Reading input from distance-1.8.in

     Current dimensions of program PWSCF are:
     Max number of different atomic species (ntypx) = 10
     Max number of k-points (npk) =  40000
     Max angular momentum in pseudopotentials (lmaxx) =  3

     IMPORTANT: XC functional enforced from input :
     Exchange-correlation      = RVV10 ( 1  4 13  4 3 0)
     Any further DFT definition will be discarded
     Please, verify this is what you really want

               file H.pbe-rrkjus.UPF: wavefunction(s)  1S renormalized
               file V.pbe-spnl-rrkjus_psl.1.0.0.UPF: wavefunction(s)  3P 3D renormalized

     Subspace diagonalization in iterative solution of the eigenvalue problem:
     a serial algorithm will be used


     Parallelization info
     --------------------
     sticks:   dense  smooth     PW     G-vecs:    dense   smooth      PW
     Min        3051    1746    432               270999   117096   14629
     Max        3053    1747    437               271001   117099   14630
     Sum       18313   10477   2611              1626001   702581   87777



     bravais-lattice index     =            4
     lattice parameter (alat)  =      23.2937  a.u.
     unit-cell volume          =    8879.8548 (a.u.)^3
     number of atoms/cell      =           52
     number of atomic types    =            3
     number of electrons       =       211.00
     number of Kohn-Sham states=          127
     kinetic-energy cutoff     =      70.0000  Ry
     charge density cutoff     =     490.0000  Ry
     convergence threshold     =      1.0E-06
     mixing beta               =       0.7000
     number of iterations used =            8  plain     mixing
     Exchange-correlation      = RVV10 ( 1  4 13  4 3 0)

     celldm(1)=  23.293684  celldm(2)=   0.000000  celldm(3)=   0.811261
     celldm(4)=   0.000000  celldm(5)=   0.000000  celldm(6)=   0.000000

     crystal axes: (cart. coord. in units of alat)
               a(1) = (   1.000000   0.000000   0.000000 )  
               a(2) = (  -0.500000   0.866025   0.000000 )  
               a(3) = (   0.000000   0.000000   0.811261 )  

     reciprocal axes: (cart. coord. in units 2 pi/alat)
               b(1) = (  1.000000  0.577350 -0.000000 )  
               b(2) = (  0.000000  1.154701  0.000000 )  
               b(3) = (  0.000000 -0.000000  1.232649 )  


     PseudoPot. # 1 for H  read from file:
     /home/cristian/Escritorio/Proyecto_Grafeno/pseudopotenciales/H.pbe-rrkjus.UPF
     MD5 check sum: 7cc9d459525c9a0585f487a71c3c9563
     Pseudo is Ultrasoft, Zval =  1.0
     Generated by new atomic code, or converted to UPF format
     Using radial grid of 1061 points,  2 beta functions with: 
                l(1) =   0
                l(2) =   0
     Q(r) pseudized with 0 coefficients 


     PseudoPot. # 2 for C  read from file:
     /home/cristian/Escritorio/Proyecto_Grafeno/pseudopotenciales/C.pbe-n-rrkjus_psl.1.0.0.UPF
     MD5 check sum: 1fdd950c42eb37d8afe3dd2f8d12311e
     Pseudo is Ultrasoft + core correction, Zval =  4.0
     Generated using "atomic" code by A. Dal Corso v.6.3MaX
     Using radial grid of 1073 points,  4 beta functions with: 
                l(1) =   0
                l(2) =   0
                l(3) =   1
                l(4) =   1
     Q(r) pseudized with 0 coefficients 


     PseudoPot. # 3 for V  read from file:
     /home/cristian/Escritorio/Proyecto_Grafeno/pseudopotenciales/V.pbe-spnl-rrkjus_psl.1.0.0.UPF
     MD5 check sum: 79b3eb63147daf0b665d9f1bcc691206
     Pseudo is Ultrasoft + core correction, Zval = 13.0
     Generated using "atomic" code by A. Dal Corso v.6.2.2
     Using radial grid of 1181 points,  6 beta functions with: 
                l(1) =   0
                l(2) =   0
                l(3) =   1
                l(4) =   1
                l(5) =   2
                l(6) =   2
     Q(r) pseudized with 0 coefficients 


     vdW kernel table read from file rVV10_kernel_table
     MD5 check sum: b8e2538accc0c0b3206b45ba4daaba6c

     atomic species   valence    mass     pseudopotential
        H              1.00     1.00794     H ( 1.00)
        C              4.00    12.01070     C ( 1.00)
        V             13.00    50.94150     V ( 1.00)

     No symmetry found


                                    s                        frac. trans.

      isym =  1     identity                                     

 cryst.   s( 1) = (     1          0          0      )
                  (     0          1          0      )
                  (     0          0          1      )

 cart.    s( 1) = (  1.0000000  0.0000000  0.0000000 )
                  (  0.0000000  1.0000000  0.0000000 )
                  (  0.0000000  0.0000000  1.0000000 )


     point group C_1 (1)    
     there are  1 classes
     the character table:

       E    
A      1.00

     the symmetry operations in each class and the name of the first element:

     E        1
          identity                                               

   Cartesian axes

     site n.     atom                  positions (alat units)
         1           H   tau(   1) = (   0.2666667   0.4618802   0.1460270  )
         2           H   tau(   2) = (   0.2666667   0.4618802   0.2070397  )
         3           C   tau(   3) = (   0.0000000   0.0000000   0.0000000  )
         4           C   tau(   4) = (   0.0000000   0.1154701   0.0000000  )
         5           C   tau(   5) = (  -0.1000000   0.1732051   0.0000000  )
         6           C   tau(   6) = (  -0.1000000   0.2886751   0.0000000  )
         7           C   tau(   7) = (  -0.2000000   0.3464102   0.0000000  )
         8           C   tau(   8) = (  -0.2000000   0.4618802   0.0000000  )
         9           C   tau(   9) = (  -0.3000000   0.5196152   0.0000000  )
        10           C   tau(  10) = (  -0.3000000   0.6350853   0.0000000  )
        11           C   tau(  11) = (  -0.4000000   0.6928203   0.0000000  )
        12           C   tau(  12) = (  -0.4000000   0.8082904   0.0000000  )
        13           C   tau(  13) = (   0.2000000   0.0000000   0.0000000  )
        14           C   tau(  14) = (   0.2000000   0.1154701   0.0000000  )
        15           C   tau(  15) = (   0.1000000   0.1732051   0.0000000  )
        16           C   tau(  16) = (   0.1000000   0.2886751   0.0000000  )
        17           C   tau(  17) = (   0.0000000   0.3464102   0.0000000  )
        18           C   tau(  18) = (   0.0000000   0.4618802   0.0000000  )
        19           C   tau(  19) = (  -0.1000000   0.5196152   0.0000000  )
        20           C   tau(  20) = (  -0.1000000   0.6350853   0.0000000  )
        21           C   tau(  21) = (  -0.2000000   0.6928203   0.0000000  )
        22           C   tau(  22) = (  -0.2000000   0.8082904   0.0000000  )
        23           C   tau(  23) = (   0.4000000   0.0000000   0.0000000  )
        24           C   tau(  24) = (   0.4000000   0.1154701   0.0000000  )
        25           C   tau(  25) = (   0.3000000   0.1732051   0.0000000  )
        26           C   tau(  26) = (   0.3000000   0.2886751   0.0000000  )
        27           C   tau(  27) = (   0.2000000   0.3464102   0.0000000  )
        28           V   tau(  28) = (   0.2000000   0.4618802   0.0000000  )
        29           C   tau(  29) = (   0.1000000   0.5196152   0.0000000  )
        30           C   tau(  30) = (   0.1000000   0.6350853   0.0000000  )
        31           C   tau(  31) = (   0.0000000   0.6928203   0.0000000  )
        32           C   tau(  32) = (   0.0000000   0.8082904   0.0000000  )
        33           C   tau(  33) = (   0.6000000   0.0000000   0.0000000  )
        34           C   tau(  34) = (   0.6000000   0.1154701   0.0000000  )
        35           C   tau(  35) = (   0.5000000   0.1732051   0.0000000  )
        36           C   tau(  36) = (   0.5000000   0.2886751   0.0000000  )
        37           C   tau(  37) = (   0.4000000   0.3464102   0.0000000  )
        38           C   tau(  38) = (   0.4000000   0.4618802   0.0000000  )
        39           C   tau(  39) = (   0.3000000   0.5196152   0.0000000  )
        40           C   tau(  40) = (   0.3000000   0.6350853   0.0000000  )
        41           C   tau(  41) = (   0.2000000   0.6928203   0.0000000  )
        42           C   tau(  42) = (   0.2000000   0.8082904   0.0000000  )
        43           C   tau(  43) = (   0.8000000   0.0000000   0.0000000  )
        44           C   tau(  44) = (   0.8000000   0.1154701   0.0000000  )
        45           C   tau(  45) = (   0.7000000   0.1732051   0.0000000  )
        46           C   tau(  46) = (   0.7000000   0.2886751   0.0000000  )
        47           C   tau(  47) = (   0.6000000   0.3464102   0.0000000  )
        48           C   tau(  48) = (   0.6000000   0.4618802   0.0000000  )
        49           C   tau(  49) = (   0.5000000   0.5196152   0.0000000  )
        50           C   tau(  50) = (   0.5000000   0.6350853   0.0000000  )
        51           C   tau(  51) = (   0.4000000   0.6928203   0.0000000  )
        52           C   tau(  52) = (   0.4000000   0.8082904   0.0000000  )

   Crystallographic axes

     site n.     atom                  positions (cryst. coord.)
         1           H   tau(   1) = (  0.5333333  0.5333333  0.1800000  )
         2           H   tau(   2) = (  0.5333333  0.5333333  0.2552072  )
         3           C   tau(   3) = (  0.0000000  0.0000000  0.0000000  )
         4           C   tau(   4) = (  0.0666667  0.1333333  0.0000000  )
         5           C   tau(   5) = (  0.0000000  0.2000000  0.0000000  )
         6           C   tau(   6) = (  0.0666667  0.3333333  0.0000000  )
         7           C   tau(   7) = (  0.0000000  0.4000000  0.0000000  )
         8           C   tau(   8) = (  0.0666667  0.5333333  0.0000000  )
         9           C   tau(   9) = (  0.0000000  0.6000000  0.0000000  )
        10           C   tau(  10) = (  0.0666667  0.7333333  0.0000000  )
        11           C   tau(  11) = (  0.0000000  0.8000000  0.0000000  )
        12           C   tau(  12) = (  0.0666667  0.9333333  0.0000000  )
        13           C   tau(  13) = (  0.2000000  0.0000000  0.0000000  )
        14           C   tau(  14) = (  0.2666667  0.1333333  0.0000000  )
        15           C   tau(  15) = (  0.2000000  0.2000000  0.0000000  )
        16           C   tau(  16) = (  0.2666667  0.3333333  0.0000000  )
        17           C   tau(  17) = (  0.2000000  0.4000000  0.0000000  )
        18           C   tau(  18) = (  0.2666667  0.5333333  0.0000000  )
        19           C   tau(  19) = (  0.2000000  0.6000000  0.0000000  )
        20           C   tau(  20) = (  0.2666667  0.7333333  0.0000000  )
        21           C   tau(  21) = (  0.2000000  0.8000000  0.0000000  )
        22           C   tau(  22) = (  0.2666667  0.9333333  0.0000000  )
        23           C   tau(  23) = (  0.4000000  0.0000000  0.0000000  )
        24           C   tau(  24) = (  0.4666667  0.1333333  0.0000000  )
        25           C   tau(  25) = (  0.4000000  0.2000000  0.0000000  )
        26           C   tau(  26) = (  0.4666667  0.3333333  0.0000000  )
        27           C   tau(  27) = (  0.4000000  0.4000000  0.0000000  )
        28           V   tau(  28) = (  0.4666667  0.5333333  0.0000000  )
        29           C   tau(  29) = (  0.4000000  0.6000000  0.0000000  )
        30           C   tau(  30) = (  0.4666667  0.7333333  0.0000000  )
        31           C   tau(  31) = (  0.4000000  0.8000000  0.0000000  )
        32           C   tau(  32) = (  0.4666667  0.9333333  0.0000000  )
        33           C   tau(  33) = (  0.6000000  0.0000000  0.0000000  )
        34           C   tau(  34) = (  0.6666667  0.1333333  0.0000000  )
        35           C   tau(  35) = (  0.6000000  0.2000000  0.0000000  )
        36           C   tau(  36) = (  0.6666667  0.3333333  0.0000000  )
        37           C   tau(  37) = (  0.6000000  0.4000000  0.0000000  )
        38           C   tau(  38) = (  0.6666667  0.5333333  0.0000000  )
        39           C   tau(  39) = (  0.6000000  0.6000000  0.0000000  )
        40           C   tau(  40) = (  0.6666667  0.7333333  0.0000000  )
        41           C   tau(  41) = (  0.6000000  0.8000000  0.0000000  )
        42           C   tau(  42) = (  0.6666667  0.9333333  0.0000000  )
        43           C   tau(  43) = (  0.8000000  0.0000000  0.0000000  )
        44           C   tau(  44) = (  0.8666667  0.1333333  0.0000000  )
        45           C   tau(  45) = (  0.8000000  0.2000000  0.0000000  )
        46           C   tau(  46) = (  0.8666667  0.3333333  0.0000000  )
        47           C   tau(  47) = (  0.8000000  0.4000000  0.0000000  )
        48           C   tau(  48) = (  0.8666667  0.5333333  0.0000000  )
        49           C   tau(  49) = (  0.8000000  0.6000000  0.0000000  )
        50           C   tau(  50) = (  0.8666667  0.7333333  0.0000000  )
        51           C   tau(  51) = (  0.8000000  0.8000000  0.0000000  )
        52           C   tau(  52) = (  0.8666667  0.9333333  0.0000000  )

     number of k points=     1  Marzari-Vanderbilt smearing, width (Ry)=  0.0010
                       cart. coord. in units 2pi/alat
        k(    1) = (   0.0000000   0.0000000   0.0000000), wk =   2.0000000

                       cryst. coord.
        k(    1) = (   0.0000000   0.0000000   0.0000000), wk =   2.0000000

     Dense  grid:  1626001 G-vectors     FFT dimensions: ( 180, 180, 135)

     Smooth grid:   702581 G-vectors     FFT dimensions: ( 125, 125, 108)

     Dynamical RAM for                 wfc:      28.36 MB

     Dynamical RAM for     wfc (w. buffer):      28.36 MB

     Dynamical RAM for           str. fact:      12.41 MB

     Dynamical RAM for           local pot:       0.00 MB

     Dynamical RAM for          nlocal pot:      92.46 MB

     Dynamical RAM for                qrad:      19.73 MB

     Dynamical RAM for          rho,v,vnew:      29.46 MB

     Dynamical RAM for               rhoin:       9.82 MB

     Dynamical RAM for            rho*nmix:      66.16 MB

     Dynamical RAM for           G-vectors:      16.40 MB

     Dynamical RAM for          h,s,v(r/c):      11.81 MB

     Dynamical RAM for          <psi|beta>:       0.80 MB

     Dynamical RAM for                 psi:     113.46 MB

     Dynamical RAM for                hpsi:     113.46 MB

     Dynamical RAM for                spsi:     113.46 MB

     Dynamical RAM for      wfcinit/wfcrot:      93.90 MB

     Dynamical RAM for           addusdens:     971.75 MB

     Estimated static dynamical RAM per process >     319.78 MB

     Estimated max dynamical RAM per process >       1.26 GB

     Estimated total dynamical RAM >       7.57 GB

     Check: negative core charge=   -0.000002

     Initial potential from superposition of free atoms

     starting charge  210.80465, renormalised to  211.00000

     negative rho (up, down):  1.374E-04 0.000E+00


---------------------------------------------------------------------------------
Carrying out rVV10 run using the following parameters:
Nqs =      20    Nr_points =    1024   r_max =   100.000
b_value =  6.30000    beta =  0.00901
     q_mesh =  0.00010000  0.00030000  0.00058939  0.00100810
               0.00161396  0.00249058  0.00375900  0.00559430
               0.00824984  0.01209221  0.01765183  0.02569619
               0.03733578  0.05417739  0.07854596  0.11380545
               0.16482331  0.23864234  0.34545298  0.50000000

Gradients computed in Reciprocal space

---------------------------------------------------------------------------------


     Starting wfcs are  208 randomized atomic wfcs

     total cpu time spent up to now is       52.7 secs

     Self-consistent Calculation

     iteration #  1     ecut=    70.00 Ry     beta= 0.70
     Davidson diagonalization with overlap
     ethr =  1.00E-02,  avg # of iterations =  3.0

     negative rho (up, down):  2.887E-04 0.000E+00

     total cpu time spent up to now is      118.4 secs

     total energy              =    -750.99487507 Ry
     Harris-Foulkes estimate   =    -760.82804788 Ry
     estimated scf accuracy    <      13.14707086 Ry

     iteration #  2     ecut=    70.00 Ry     beta= 0.70
     Davidson diagonalization with overlap
     ethr =  6.23E-03,  avg # of iterations =  7.0

     negative rho (up, down):  2.299E-03 0.000E+00

     total cpu time spent up to now is      181.1 secs

     total energy              =    -742.50655306 Ry
     Harris-Foulkes estimate   =    -775.51455335 Ry
     estimated scf accuracy    <     120.59151217 Ry

     iteration #  3     ecut=    70.00 Ry     beta= 0.70
     Davidson diagonalization with overlap
     ethr =  6.23E-03,  avg # of iterations =  5.0

     negative rho (up, down):  3.202E-02 0.000E+00

     total cpu time spent up to now is      259.4 secs

     total energy              =    -755.86762778 Ry
     Harris-Foulkes estimate   =    -758.50959741 Ry
     estimated scf accuracy    <       6.60415643 Ry

     iteration #  4     ecut=    70.00 Ry     beta= 0.70
     Davidson diagonalization with overlap
     ethr =  3.13E-03,  avg # of iterations =  3.0

     negative rho (up, down):  1.532E-02 0.000E+00

     total cpu time spent up to now is      316.9 secs

     total energy              =    -756.66350254 Ry
     Harris-Foulkes estimate   =    -757.64898951 Ry
     estimated scf accuracy    <       3.21159735 Ry

     iteration #  5     ecut=    70.00 Ry     beta= 0.70
     Davidson diagonalization with overlap
     ethr =  1.52E-03,  avg # of iterations =  7.0

     negative rho (up, down):  4.936E-02 0.000E+00

     total cpu time spent up to now is      369.4 secs

     total energy              =    -757.25138425 Ry
     Harris-Foulkes estimate   =    -757.37972246 Ry
     estimated scf accuracy    <       0.54041407 Ry

     iteration #  6     ecut=    70.00 Ry     beta= 0.70
     Davidson diagonalization with overlap
     ethr =  2.56E-04,  avg # of iterations =  4.0

     negative rho (up, down):  5.384E-02 0.000E+00

     total cpu time spent up to now is      419.6 secs

     total energy              =    -757.27002275 Ry
     Harris-Foulkes estimate   =    -757.30483298 Ry
     estimated scf accuracy    <       0.16359838 Ry

     iteration #  7     ecut=    70.00 Ry     beta= 0.70
     Davidson diagonalization with overlap
     ethr =  7.75E-05,  avg # of iterations =  4.0

     negative rho (up, down):  3.049E-02 0.000E+00

     total cpu time spent up to now is      470.7 secs

     total energy              =    -757.28923672 Ry
     Harris-Foulkes estimate   =    -757.29583902 Ry
     estimated scf accuracy    <       0.09257524 Ry

     iteration #  8     ecut=    70.00 Ry     beta= 0.70
     Davidson diagonalization with overlap
     ethr =  4.39E-05,  avg # of iterations =  4.0

     negative rho (up, down):  3.526E-02 0.000E+00

     total cpu time spent up to now is      523.3 secs

     total energy              =    -757.29875624 Ry
     Harris-Foulkes estimate   =    -757.30446958 Ry
     estimated scf accuracy    <       0.02955962 Ry

     iteration #  9     ecut=    70.00 Ry     beta= 0.70
     Davidson diagonalization with overlap
     ethr =  1.40E-05,  avg # of iterations =  5.0

     negative rho (up, down):  3.784E-02 0.000E+00

     total cpu time spent up to now is      578.2 secs

     total energy              =    -757.30344456 Ry
     Harris-Foulkes estimate   =    -757.31001634 Ry
     estimated scf accuracy    <       0.04019362 Ry

     iteration # 10     ecut=    70.00 Ry     beta= 0.70
     Davidson diagonalization with overlap
     ethr =  1.40E-05,  avg # of iterations =  3.0

     negative rho (up, down):  3.427E-02 0.000E+00

     total cpu time spent up to now is      627.6 secs

     total energy              =    -757.30911214 Ry
     Harris-Foulkes estimate   =    -757.30904599 Ry
     estimated scf accuracy    <       0.01777068 Ry

     iteration # 11     ecut=    70.00 Ry     beta= 0.70
     Davidson diagonalization with overlap
     ethr =  8.42E-06,  avg # of iterations =  3.0

     negative rho (up, down):  3.417E-02 0.000E+00

     total cpu time spent up to now is      678.7 secs

     total energy              =    -757.31106362 Ry
     Harris-Foulkes estimate   =    -757.31082745 Ry
     estimated scf accuracy    <       0.00646938 Ry

     iteration # 12     ecut=    70.00 Ry     beta= 0.70
     Davidson diagonalization with overlap
     ethr =  3.07E-06,  avg # of iterations = 13.0

     negative rho (up, down):  3.406E-02 0.000E+00

     total cpu time spent up to now is      732.2 secs

     total energy              =    -757.31187040 Ry
     Harris-Foulkes estimate   =    -757.31174968 Ry
     estimated scf accuracy    <       0.00410452 Ry

     iteration # 13     ecut=    70.00 Ry     beta= 0.70
     Davidson diagonalization with overlap
     ethr =  1.95E-06,  avg # of iterations =  3.0

     negative rho (up, down):  3.264E-02 0.000E+00

     total cpu time spent up to now is      782.3 secs

     total energy              =    -757.31334013 Ry
     Harris-Foulkes estimate   =    -757.31207522 Ry
     estimated scf accuracy    <       0.00024141 Ry

     iteration # 14     ecut=    70.00 Ry     beta= 0.70
     Davidson diagonalization with overlap
     ethr =  1.14E-07,  avg # of iterations =  8.0

     negative rho (up, down):  3.305E-02 0.000E+00

     total cpu time spent up to now is      845.0 secs

     total energy              =    -757.31329374 Ry
     Harris-Foulkes estimate   =    -757.31347546 Ry
     estimated scf accuracy    <       0.00069243 Ry

     iteration # 15     ecut=    70.00 Ry     beta= 0.70
     Davidson diagonalization with overlap
     ethr =  1.14E-07,  avg # of iterations =  3.0

     negative rho (up, down):  3.325E-02 0.000E+00

     total cpu time spent up to now is      895.0 secs

     total energy              =    -757.31338171 Ry
     Harris-Foulkes estimate   =    -757.31337640 Ry
     estimated scf accuracy    <       0.00086544 Ry

     iteration # 16     ecut=    70.00 Ry     beta= 0.70
     Davidson diagonalization with overlap
     ethr =  1.14E-07,  avg # of iterations =  2.0

     negative rho (up, down):  3.340E-02 0.000E+00

     total cpu time spent up to now is      943.4 secs

     total energy              =    -757.31342609 Ry
     Harris-Foulkes estimate   =    -757.31342146 Ry
     estimated scf accuracy    <       0.00017988 Ry

     iteration # 17     ecut=    70.00 Ry     beta= 0.70
     Davidson diagonalization with overlap
     ethr =  8.53E-08,  avg # of iterations =  1.0

     negative rho (up, down):  3.351E-02 0.000E+00

     total cpu time spent up to now is      991.7 secs

     total energy              =    -757.31344128 Ry
     Harris-Foulkes estimate   =    -757.31343586 Ry
     estimated scf accuracy    <       0.00001301 Ry

     iteration # 18     ecut=    70.00 Ry     beta= 0.70
     Davidson diagonalization with overlap
     ethr =  6.16E-09,  avg # of iterations =  4.0

     negative rho (up, down):  3.358E-02 0.000E+00

     total cpu time spent up to now is     1042.0 secs

     total energy              =    -757.31344164 Ry
     Harris-Foulkes estimate   =    -757.31344308 Ry
     estimated scf accuracy    <       0.00000460 Ry

     iteration # 19     ecut=    70.00 Ry     beta= 0.70
     Davidson diagonalization with overlap
     ethr =  2.18E-09,  avg # of iterations =  2.0

     negative rho (up, down):  3.360E-02 0.000E+00

     total cpu time spent up to now is     1091.5 secs

     total energy              =    -757.31344181 Ry
     Harris-Foulkes estimate   =    -757.31344233 Ry
     estimated scf accuracy    <       0.00000224 Ry

     iteration # 20     ecut=    70.00 Ry     beta= 0.70
     Davidson diagonalization with overlap
     ethr =  1.06E-09,  avg # of iterations =  2.0

     negative rho (up, down):  3.360E-02 0.000E+00

     total cpu time spent up to now is     1139.8 secs

     End of self-consistent calculation

          k = 0.0000 0.0000 0.0000 ( 87777 PWs)   bands (ev):

   -62.7305 -37.8434 -37.8325 -36.4650 -19.6208 -18.7828 -18.7717 -18.7090
   -18.6688 -18.6601 -18.2235 -16.9263 -16.9240 -16.9205 -16.7830 -16.7810
   -16.5076 -16.0660 -16.0655 -15.9776 -15.8235 -15.8185 -15.0783 -13.8740
   -13.8704 -13.8655 -13.8547 -13.8527 -13.1334 -12.9102 -12.9078 -12.8886
   -12.5032 -12.4978 -12.1053 -11.6351 -11.6330 -11.5102 -11.1374 -11.1295
   -10.1573  -9.3343  -9.3247  -9.2479  -9.1706  -9.1691  -9.0852  -9.0579
    -9.0565  -9.0438  -8.5472  -8.4567  -8.3613  -7.8851  -7.8823  -7.8495
    -7.7016  -7.6678  -7.2445  -7.2435  -6.9248  -6.8858  -6.8263  -6.6800
    -6.6767  -6.6566  -6.5830  -6.5809  -6.5358  -6.4286  -6.4231  -6.3847
    -6.3786  -6.3778  -6.3258  -6.1010  -5.2532  -5.2488  -5.1209  -5.0274
    -4.9377  -4.9362  -4.8280  -4.7388  -4.5957  -4.5802  -4.5784  -4.1916
    -3.9598  -3.9480  -3.7197  -3.7188  -3.6317  -3.6053  -3.4919  -3.4909
    -2.8140  -2.2399  -2.2238  -2.1866  -2.1784  -1.6968  -1.6714  -1.6692
    -0.4975  -0.1385  -0.1369   1.0862   1.0877   1.0958   1.2637   1.8370
     2.0776   2.0863   2.4921   2.9278   2.9347   2.9981   3.4998   3.5204
     3.5423   3.7694   3.7803   3.8304   3.9230   4.0363   4.0392

     occupation numbers 
     1.0000   1.0000   1.0000   1.0000   1.0000   1.0000   1.0000   1.0000
     1.0000   1.0000   1.0000   1.0000   1.0000   1.0000   1.0000   1.0000
     1.0000   1.0000   1.0000   1.0000   1.0000   1.0000   1.0000   1.0000
     1.0000   1.0000   1.0000   1.0000   1.0000   1.0000   1.0000   1.0000
     1.0000   1.0000   1.0000   1.0000   1.0000   1.0000   1.0000   1.0000
     1.0000   1.0000   1.0000   1.0000   1.0000   1.0000   1.0000   1.0000
     1.0000   1.0000   1.0000   1.0000   1.0000   1.0000   1.0000   1.0000
     1.0000   1.0000   1.0000   1.0000   1.0000   1.0000   1.0000   1.0000
     1.0000   1.0000   1.0000   1.0000   1.0000   1.0000   1.0000   1.0000
     1.0000   1.0000   1.0000   1.0000   1.0000   1.0000   1.0000   1.0000
     1.0000   1.0000   1.0000   1.0000   1.0000   1.0000   1.0000   1.0000
     1.0000   1.0000   1.0000   1.0000   1.0000   1.0000   1.0000   1.0000
     1.0000   1.0000   1.0000   1.0000   1.0000   1.0000   1.0000   1.0000
     1.0000   0.2809   0.2191   0.0000   0.0000   0.0000   0.0000   0.0000
     0.0000   0.0000   0.0000   0.0000   0.0000   0.0000   0.0000   0.0000
     0.0000   0.0000   0.0000   0.0000   0.0000   0.0000   0.0000

     the Fermi energy is    -0.1411 ev

!    total energy              =    -757.31344134 Ry
     Harris-Foulkes estimate   =    -757.31344200 Ry
     estimated scf accuracy    <       0.00000091 Ry

     The total energy is the sum of the following terms:

     one-electron contribution =   -2606.41296615 Ry
     hartree contribution      =    1350.02484590 Ry
     xc contribution           =    -252.71436335 Ry
     ewald contribution        =     751.78965218 Ry
     smearing contrib. (-TS)   =      -0.00060992 Ry

     convergence has been achieved in  20 iterations

     Writing output data file gr-12-baricentro.save/

     init_run     :     50.35s CPU     51.61s WALL (       1 calls)
     electrons    :   1054.60s CPU   1087.29s WALL (       1 calls)

     Called by init_run:
     wfcinit      :     20.60s CPU     20.81s WALL (       1 calls)
     wfcinit:atom :      0.01s CPU      0.05s WALL (       1 calls)
     wfcinit:wfcr :     20.43s CPU     20.57s WALL (       1 calls)
     potinit      :     12.94s CPU     13.35s WALL (       1 calls)
     hinit0       :     12.25s CPU     12.30s WALL (       1 calls)

     Called by electrons:
     c_bands      :    647.85s CPU    651.49s WALL (      20 calls)
     sum_band     :    200.19s CPU    211.28s WALL (      20 calls)
     v_of_rho     :    127.04s CPU    134.77s WALL (      21 calls)
     v_h          :      1.44s CPU      1.47s WALL (      21 calls)
     v_xc         :    125.61s CPU    133.30s WALL (      21 calls)
     newd         :     83.25s CPU     94.23s WALL (      21 calls)
     mix_rho      :      3.89s CPU      3.98s WALL (      20 calls)

     Called by c_bands:
     init_us_2    :      1.67s CPU      1.72s WALL (      41 calls)
     cegterg      :    643.57s CPU    647.20s WALL (      20 calls)

     Called by sum_band:
     sum_band:bec :      0.02s CPU      0.02s WALL (      20 calls)
     addusdens    :    122.97s CPU    133.50s WALL (      20 calls)

     Called by *egterg:
     h_psi        :    341.29s CPU    343.84s WALL (     107 calls)
     s_psi        :    114.74s CPU    114.83s WALL (     107 calls)
     g_psi        :      0.36s CPU      0.37s WALL (      86 calls)
     cdiaghg      :      7.89s CPU      7.89s WALL (     106 calls)
     cegterg:over :     78.72s CPU     78.79s WALL (      86 calls)
     cegterg:upda :     50.59s CPU     50.89s WALL (      86 calls)
     cegterg:last :     33.28s CPU     33.28s WALL (      20 calls)

     Called by h_psi:
     h_psi:pot    :    340.92s CPU    343.00s WALL (     107 calls)
     h_psi:calbec :    114.97s CPU    115.04s WALL (     107 calls)
     vloc_psi     :    111.12s CPU    113.08s WALL (     107 calls)
     add_vuspsi   :    114.83s CPU    114.88s WALL (     107 calls)

     General routines
     calbec       :    162.30s CPU    162.40s WALL (     127 calls)
     fft          :     71.46s CPU     74.24s WALL (    1321 calls)
     ffts         :      0.75s CPU      0.78s WALL (      41 calls)
     fftw         :    117.41s CPU    119.61s WALL (   14896 calls)
     interpolate  :      1.73s CPU      1.79s WALL (      21 calls)

     Parallel routines
     fft_scatt_xy :     32.61s CPU     33.03s WALL (   16258 calls)
     fft_scatt_yz :     65.37s CPU     68.99s WALL (   16258 calls)

     PWSCF        :  18m26.06s CPU  19m 0.30s WALL


   This run was terminated on:  12:24:52  21Jul2022            

=------------------------------------------------------------------------------=
   JOB DONE.
=------------------------------------------------------------------------------=
