
     Program PWSCF v.6.4.1 starts on 21Jul2022 at  9:52:40 

     This program is part of the open-source Quantum ESPRESSO suite
     for quantum simulation of materials; please cite
         "P. Giannozzi et al., J. Phys.:Condens. Matter 21 395502 (2009);
         "P. Giannozzi et al., J. Phys.:Condens. Matter 29 465901 (2017);
          URL http://www.quantum-espresso.org", 
     in publications or presentations arising from this work. More details at
     http://www.quantum-espresso.org/quote

     Parallel version (MPI), running on     6 processors

     MPI processes distributed on     1 nodes
     R & G space division:  proc/nbgrp/npool/nimage =       6
     Reading input from distance-3.5.in

     Current dimensions of program PWSCF are:
     Max number of different atomic species (ntypx) = 10
     Max number of k-points (npk) =  40000
     Max angular momentum in pseudopotentials (lmaxx) =  3

     IMPORTANT: XC functional enforced from input :
     Exchange-correlation      = RVV10 ( 1  4 13  4 3 0)
     Any further DFT definition will be discarded
     Please, verify this is what you really want

               file H.pbe-rrkjus.UPF: wavefunction(s)  1S renormalized
               file V.pbe-spnl-rrkjus_psl.1.0.0.UPF: wavefunction(s)  3P 3D renormalized

     Subspace diagonalization in iterative solution of the eigenvalue problem:
     a serial algorithm will be used


     Parallelization info
     --------------------
     sticks:   dense  smooth     PW     G-vecs:    dense   smooth      PW
     Min        3051    1746    432               270999   117096   14629
     Max        3053    1747    437               271001   117099   14630
     Sum       18313   10477   2611              1626001   702581   87777



     bravais-lattice index     =            4
     lattice parameter (alat)  =      23.2937  a.u.
     unit-cell volume          =    8879.8548 (a.u.)^3
     number of atoms/cell      =           52
     number of atomic types    =            3
     number of electrons       =       211.00
     number of Kohn-Sham states=          127
     kinetic-energy cutoff     =      70.0000  Ry
     charge density cutoff     =     490.0000  Ry
     convergence threshold     =      1.0E-06
     mixing beta               =       0.7000
     number of iterations used =            8  plain     mixing
     Exchange-correlation      = RVV10 ( 1  4 13  4 3 0)

     celldm(1)=  23.293684  celldm(2)=   0.000000  celldm(3)=   0.811261
     celldm(4)=   0.000000  celldm(5)=   0.000000  celldm(6)=   0.000000

     crystal axes: (cart. coord. in units of alat)
               a(1) = (   1.000000   0.000000   0.000000 )  
               a(2) = (  -0.500000   0.866025   0.000000 )  
               a(3) = (   0.000000   0.000000   0.811261 )  

     reciprocal axes: (cart. coord. in units 2 pi/alat)
               b(1) = (  1.000000  0.577350 -0.000000 )  
               b(2) = (  0.000000  1.154701  0.000000 )  
               b(3) = (  0.000000 -0.000000  1.232649 )  


     PseudoPot. # 1 for H  read from file:
     /home/cristian/Escritorio/Proyecto_Grafeno/pseudopotenciales/H.pbe-rrkjus.UPF
     MD5 check sum: 7cc9d459525c9a0585f487a71c3c9563
     Pseudo is Ultrasoft, Zval =  1.0
     Generated by new atomic code, or converted to UPF format
     Using radial grid of 1061 points,  2 beta functions with: 
                l(1) =   0
                l(2) =   0
     Q(r) pseudized with 0 coefficients 


     PseudoPot. # 2 for C  read from file:
     /home/cristian/Escritorio/Proyecto_Grafeno/pseudopotenciales/C.pbe-n-rrkjus_psl.1.0.0.UPF
     MD5 check sum: 1fdd950c42eb37d8afe3dd2f8d12311e
     Pseudo is Ultrasoft + core correction, Zval =  4.0
     Generated using "atomic" code by A. Dal Corso v.6.3MaX
     Using radial grid of 1073 points,  4 beta functions with: 
                l(1) =   0
                l(2) =   0
                l(3) =   1
                l(4) =   1
     Q(r) pseudized with 0 coefficients 


     PseudoPot. # 3 for V  read from file:
     /home/cristian/Escritorio/Proyecto_Grafeno/pseudopotenciales/V.pbe-spnl-rrkjus_psl.1.0.0.UPF
     MD5 check sum: 79b3eb63147daf0b665d9f1bcc691206
     Pseudo is Ultrasoft + core correction, Zval = 13.0
     Generated using "atomic" code by A. Dal Corso v.6.2.2
     Using radial grid of 1181 points,  6 beta functions with: 
                l(1) =   0
                l(2) =   0
                l(3) =   1
                l(4) =   1
                l(5) =   2
                l(6) =   2
     Q(r) pseudized with 0 coefficients 


     vdW kernel table read from file rVV10_kernel_table
     MD5 check sum: b8e2538accc0c0b3206b45ba4daaba6c

     atomic species   valence    mass     pseudopotential
        H              1.00     1.00794     H ( 1.00)
        C              4.00    12.01070     C ( 1.00)
        V             13.00    50.94150     V ( 1.00)

     No symmetry found


                                    s                        frac. trans.

      isym =  1     identity                                     

 cryst.   s( 1) = (     1          0          0      )
                  (     0          1          0      )
                  (     0          0          1      )

 cart.    s( 1) = (  1.0000000  0.0000000  0.0000000 )
                  (  0.0000000  1.0000000  0.0000000 )
                  (  0.0000000  0.0000000  1.0000000 )


     point group C_1 (1)    
     there are  1 classes
     the character table:

       E    
A      1.00

     the symmetry operations in each class and the name of the first element:

     E        1
          identity                                               

   Cartesian axes

     site n.     atom                  positions (alat units)
         1           H   tau(   1) = (   0.2666667   0.4618802   0.2839414  )
         2           H   tau(   2) = (   0.2666667   0.4618802   0.3449541  )
         3           C   tau(   3) = (   0.0000000   0.0000000   0.0000000  )
         4           C   tau(   4) = (   0.0000000   0.1154701   0.0000000  )
         5           C   tau(   5) = (  -0.1000000   0.1732051   0.0000000  )
         6           C   tau(   6) = (  -0.1000000   0.2886751   0.0000000  )
         7           C   tau(   7) = (  -0.2000000   0.3464102   0.0000000  )
         8           C   tau(   8) = (  -0.2000000   0.4618802   0.0000000  )
         9           C   tau(   9) = (  -0.3000000   0.5196152   0.0000000  )
        10           C   tau(  10) = (  -0.3000000   0.6350853   0.0000000  )
        11           C   tau(  11) = (  -0.4000000   0.6928203   0.0000000  )
        12           C   tau(  12) = (  -0.4000000   0.8082904   0.0000000  )
        13           C   tau(  13) = (   0.2000000   0.0000000   0.0000000  )
        14           C   tau(  14) = (   0.2000000   0.1154701   0.0000000  )
        15           C   tau(  15) = (   0.1000000   0.1732051   0.0000000  )
        16           C   tau(  16) = (   0.1000000   0.2886751   0.0000000  )
        17           C   tau(  17) = (   0.0000000   0.3464102   0.0000000  )
        18           C   tau(  18) = (   0.0000000   0.4618802   0.0000000  )
        19           C   tau(  19) = (  -0.1000000   0.5196152   0.0000000  )
        20           C   tau(  20) = (  -0.1000000   0.6350853   0.0000000  )
        21           C   tau(  21) = (  -0.2000000   0.6928203   0.0000000  )
        22           C   tau(  22) = (  -0.2000000   0.8082904   0.0000000  )
        23           C   tau(  23) = (   0.4000000   0.0000000   0.0000000  )
        24           C   tau(  24) = (   0.4000000   0.1154701   0.0000000  )
        25           C   tau(  25) = (   0.3000000   0.1732051   0.0000000  )
        26           C   tau(  26) = (   0.3000000   0.2886751   0.0000000  )
        27           C   tau(  27) = (   0.2000000   0.3464102   0.0000000  )
        28           V   tau(  28) = (   0.2000000   0.4618802   0.0000000  )
        29           C   tau(  29) = (   0.1000000   0.5196152   0.0000000  )
        30           C   tau(  30) = (   0.1000000   0.6350853   0.0000000  )
        31           C   tau(  31) = (   0.0000000   0.6928203   0.0000000  )
        32           C   tau(  32) = (   0.0000000   0.8082904   0.0000000  )
        33           C   tau(  33) = (   0.6000000   0.0000000   0.0000000  )
        34           C   tau(  34) = (   0.6000000   0.1154701   0.0000000  )
        35           C   tau(  35) = (   0.5000000   0.1732051   0.0000000  )
        36           C   tau(  36) = (   0.5000000   0.2886751   0.0000000  )
        37           C   tau(  37) = (   0.4000000   0.3464102   0.0000000  )
        38           C   tau(  38) = (   0.4000000   0.4618802   0.0000000  )
        39           C   tau(  39) = (   0.3000000   0.5196152   0.0000000  )
        40           C   tau(  40) = (   0.3000000   0.6350853   0.0000000  )
        41           C   tau(  41) = (   0.2000000   0.6928203   0.0000000  )
        42           C   tau(  42) = (   0.2000000   0.8082904   0.0000000  )
        43           C   tau(  43) = (   0.8000000   0.0000000   0.0000000  )
        44           C   tau(  44) = (   0.8000000   0.1154701   0.0000000  )
        45           C   tau(  45) = (   0.7000000   0.1732051   0.0000000  )
        46           C   tau(  46) = (   0.7000000   0.2886751   0.0000000  )
        47           C   tau(  47) = (   0.6000000   0.3464102   0.0000000  )
        48           C   tau(  48) = (   0.6000000   0.4618802   0.0000000  )
        49           C   tau(  49) = (   0.5000000   0.5196152   0.0000000  )
        50           C   tau(  50) = (   0.5000000   0.6350853   0.0000000  )
        51           C   tau(  51) = (   0.4000000   0.6928203   0.0000000  )
        52           C   tau(  52) = (   0.4000000   0.8082904   0.0000000  )

   Crystallographic axes

     site n.     atom                  positions (cryst. coord.)
         1           H   tau(   1) = (  0.5333333  0.5333333  0.3500000  )
         2           H   tau(   2) = (  0.5333333  0.5333333  0.4252072  )
         3           C   tau(   3) = (  0.0000000  0.0000000  0.0000000  )
         4           C   tau(   4) = (  0.0666667  0.1333333  0.0000000  )
         5           C   tau(   5) = (  0.0000000  0.2000000  0.0000000  )
         6           C   tau(   6) = (  0.0666667  0.3333333  0.0000000  )
         7           C   tau(   7) = (  0.0000000  0.4000000  0.0000000  )
         8           C   tau(   8) = (  0.0666667  0.5333333  0.0000000  )
         9           C   tau(   9) = (  0.0000000  0.6000000  0.0000000  )
        10           C   tau(  10) = (  0.0666667  0.7333333  0.0000000  )
        11           C   tau(  11) = (  0.0000000  0.8000000  0.0000000  )
        12           C   tau(  12) = (  0.0666667  0.9333333  0.0000000  )
        13           C   tau(  13) = (  0.2000000  0.0000000  0.0000000  )
        14           C   tau(  14) = (  0.2666667  0.1333333  0.0000000  )
        15           C   tau(  15) = (  0.2000000  0.2000000  0.0000000  )
        16           C   tau(  16) = (  0.2666667  0.3333333  0.0000000  )
        17           C   tau(  17) = (  0.2000000  0.4000000  0.0000000  )
        18           C   tau(  18) = (  0.2666667  0.5333333  0.0000000  )
        19           C   tau(  19) = (  0.2000000  0.6000000  0.0000000  )
        20           C   tau(  20) = (  0.2666667  0.7333333  0.0000000  )
        21           C   tau(  21) = (  0.2000000  0.8000000  0.0000000  )
        22           C   tau(  22) = (  0.2666667  0.9333333  0.0000000  )
        23           C   tau(  23) = (  0.4000000  0.0000000  0.0000000  )
        24           C   tau(  24) = (  0.4666667  0.1333333  0.0000000  )
        25           C   tau(  25) = (  0.4000000  0.2000000  0.0000000  )
        26           C   tau(  26) = (  0.4666667  0.3333333  0.0000000  )
        27           C   tau(  27) = (  0.4000000  0.4000000  0.0000000  )
        28           V   tau(  28) = (  0.4666667  0.5333333  0.0000000  )
        29           C   tau(  29) = (  0.4000000  0.6000000  0.0000000  )
        30           C   tau(  30) = (  0.4666667  0.7333333  0.0000000  )
        31           C   tau(  31) = (  0.4000000  0.8000000  0.0000000  )
        32           C   tau(  32) = (  0.4666667  0.9333333  0.0000000  )
        33           C   tau(  33) = (  0.6000000  0.0000000  0.0000000  )
        34           C   tau(  34) = (  0.6666667  0.1333333  0.0000000  )
        35           C   tau(  35) = (  0.6000000  0.2000000  0.0000000  )
        36           C   tau(  36) = (  0.6666667  0.3333333  0.0000000  )
        37           C   tau(  37) = (  0.6000000  0.4000000  0.0000000  )
        38           C   tau(  38) = (  0.6666667  0.5333333  0.0000000  )
        39           C   tau(  39) = (  0.6000000  0.6000000  0.0000000  )
        40           C   tau(  40) = (  0.6666667  0.7333333  0.0000000  )
        41           C   tau(  41) = (  0.6000000  0.8000000  0.0000000  )
        42           C   tau(  42) = (  0.6666667  0.9333333  0.0000000  )
        43           C   tau(  43) = (  0.8000000  0.0000000  0.0000000  )
        44           C   tau(  44) = (  0.8666667  0.1333333  0.0000000  )
        45           C   tau(  45) = (  0.8000000  0.2000000  0.0000000  )
        46           C   tau(  46) = (  0.8666667  0.3333333  0.0000000  )
        47           C   tau(  47) = (  0.8000000  0.4000000  0.0000000  )
        48           C   tau(  48) = (  0.8666667  0.5333333  0.0000000  )
        49           C   tau(  49) = (  0.8000000  0.6000000  0.0000000  )
        50           C   tau(  50) = (  0.8666667  0.7333333  0.0000000  )
        51           C   tau(  51) = (  0.8000000  0.8000000  0.0000000  )
        52           C   tau(  52) = (  0.8666667  0.9333333  0.0000000  )

     number of k points=     1  Marzari-Vanderbilt smearing, width (Ry)=  0.0010
                       cart. coord. in units 2pi/alat
        k(    1) = (   0.0000000   0.0000000   0.0000000), wk =   2.0000000

                       cryst. coord.
        k(    1) = (   0.0000000   0.0000000   0.0000000), wk =   2.0000000

     Dense  grid:  1626001 G-vectors     FFT dimensions: ( 180, 180, 135)

     Smooth grid:   702581 G-vectors     FFT dimensions: ( 125, 125, 108)

     Dynamical RAM for                 wfc:      28.36 MB

     Dynamical RAM for     wfc (w. buffer):      28.36 MB

     Dynamical RAM for           str. fact:      12.41 MB

     Dynamical RAM for           local pot:       0.00 MB

     Dynamical RAM for          nlocal pot:      92.46 MB

     Dynamical RAM for                qrad:      19.73 MB

     Dynamical RAM for          rho,v,vnew:      29.46 MB

     Dynamical RAM for               rhoin:       9.82 MB

     Dynamical RAM for            rho*nmix:      66.16 MB

     Dynamical RAM for           G-vectors:      16.40 MB

     Dynamical RAM for          h,s,v(r/c):      11.81 MB

     Dynamical RAM for          <psi|beta>:       0.80 MB

     Dynamical RAM for                 psi:     113.46 MB

     Dynamical RAM for                hpsi:     113.46 MB

     Dynamical RAM for                spsi:     113.46 MB

     Dynamical RAM for      wfcinit/wfcrot:      93.90 MB

     Dynamical RAM for           addusdens:     971.75 MB

     Estimated static dynamical RAM per process >     319.78 MB

     Estimated max dynamical RAM per process >       1.26 GB

     Estimated total dynamical RAM >       7.57 GB

     Check: negative core charge=   -0.000002

     Initial potential from superposition of free atoms

     starting charge  210.80465, renormalised to  211.00000

     negative rho (up, down):  1.071E-04 0.000E+00


---------------------------------------------------------------------------------
Carrying out rVV10 run using the following parameters:
Nqs =      20    Nr_points =    1024   r_max =   100.000
b_value =  6.30000    beta =  0.00901
     q_mesh =  0.00010000  0.00030000  0.00058939  0.00100810
               0.00161396  0.00249058  0.00375900  0.00559430
               0.00824984  0.01209221  0.01765183  0.02569619
               0.03733578  0.05417739  0.07854596  0.11380545
               0.16482331  0.23864234  0.34545298  0.50000000

Gradients computed in Reciprocal space

---------------------------------------------------------------------------------


     Starting wfcs are  208 randomized atomic wfcs

     total cpu time spent up to now is       49.3 secs

     Self-consistent Calculation

     iteration #  1     ecut=    70.00 Ry     beta= 0.70
     Davidson diagonalization with overlap
     ethr =  1.00E-02,  avg # of iterations =  3.0

     negative rho (up, down):  2.832E-03 0.000E+00

     total cpu time spent up to now is      115.4 secs

     total energy              =    -755.21295913 Ry
     Harris-Foulkes estimate   =    -760.47482225 Ry
     estimated scf accuracy    <       8.00488232 Ry

     iteration #  2     ecut=    70.00 Ry     beta= 0.70
     Davidson diagonalization with overlap
     ethr =  3.79E-03,  avg # of iterations =  6.0

     negative rho (up, down):  2.124E-02 0.000E+00

     total cpu time spent up to now is      180.3 secs

     total energy              =    -748.59220898 Ry
     Harris-Foulkes estimate   =    -761.64993796 Ry
     estimated scf accuracy    <      43.80468938 Ry

     iteration #  3     ecut=    70.00 Ry     beta= 0.70
     Davidson diagonalization with overlap
     ethr =  3.79E-03,  avg # of iterations =  5.0

     negative rho (up, down):  3.520E-03 0.000E+00

     total cpu time spent up to now is      262.5 secs

     total energy              =    -755.39128451 Ry
     Harris-Foulkes estimate   =    -759.60599211 Ry
     estimated scf accuracy    <      22.01518153 Ry

     iteration #  4     ecut=    70.00 Ry     beta= 0.70
     Davidson diagonalization with overlap
     ethr =  3.79E-03,  avg # of iterations =  4.0

     negative rho (up, down):  4.064E-02 0.000E+00

     total cpu time spent up to now is      313.5 secs

     total energy              =    -757.11548191 Ry
     Harris-Foulkes estimate   =    -757.75497438 Ry
     estimated scf accuracy    <       1.85265348 Ry

     iteration #  5     ecut=    70.00 Ry     beta= 0.70
     Davidson diagonalization with overlap
     ethr =  8.78E-04,  avg # of iterations =  8.0

     negative rho (up, down):  6.211E-02 0.000E+00

     total cpu time spent up to now is      369.3 secs

     total energy              =    -757.27895733 Ry
     Harris-Foulkes estimate   =    -757.35540732 Ry
     estimated scf accuracy    <       0.28881246 Ry

     iteration #  6     ecut=    70.00 Ry     beta= 0.70
     Davidson diagonalization with overlap
     ethr =  1.37E-04,  avg # of iterations =  3.0

     negative rho (up, down):  5.607E-02 0.000E+00

     total cpu time spent up to now is      420.3 secs

     total energy              =    -757.29476909 Ry
     Harris-Foulkes estimate   =    -757.32630310 Ry
     estimated scf accuracy    <       0.19968888 Ry

     iteration #  7     ecut=    70.00 Ry     beta= 0.70
     Davidson diagonalization with overlap
     ethr =  9.46E-05,  avg # of iterations =  3.0

     negative rho (up, down):  4.019E-02 0.000E+00

     total cpu time spent up to now is      469.4 secs

     total energy              =    -757.30368579 Ry
     Harris-Foulkes estimate   =    -757.31454495 Ry
     estimated scf accuracy    <       0.10896193 Ry

     iteration #  8     ecut=    70.00 Ry     beta= 0.70
     Davidson diagonalization with overlap
     ethr =  5.16E-05,  avg # of iterations =  3.0

     negative rho (up, down):  3.229E-02 0.000E+00

     total cpu time spent up to now is      518.6 secs

     total energy              =    -757.31357327 Ry
     Harris-Foulkes estimate   =    -757.31324754 Ry
     estimated scf accuracy    <       0.03879571 Ry

     iteration #  9     ecut=    70.00 Ry     beta= 0.70
     Davidson diagonalization with overlap
     ethr =  1.84E-05,  avg # of iterations =  4.0

     negative rho (up, down):  3.429E-02 0.000E+00

     total cpu time spent up to now is      572.7 secs

     total energy              =    -757.31884945 Ry
     Harris-Foulkes estimate   =    -757.32481839 Ry
     estimated scf accuracy    <       0.04198579 Ry

     iteration # 10     ecut=    70.00 Ry     beta= 0.70
     Davidson diagonalization with overlap
     ethr =  1.84E-05,  avg # of iterations =  3.0

     negative rho (up, down):  3.414E-02 0.000E+00

     total cpu time spent up to now is      622.0 secs

     total energy              =    -757.32287926 Ry
     Harris-Foulkes estimate   =    -757.32386353 Ry
     estimated scf accuracy    <       0.02114438 Ry

     iteration # 11     ecut=    70.00 Ry     beta= 0.70
     Davidson diagonalization with overlap
     ethr =  1.00E-05,  avg # of iterations =  4.0

     negative rho (up, down):  3.342E-02 0.000E+00

     total cpu time spent up to now is      673.2 secs

     total energy              =    -757.32476514 Ry
     Harris-Foulkes estimate   =    -757.32456499 Ry
     estimated scf accuracy    <       0.01348211 Ry

     iteration # 12     ecut=    70.00 Ry     beta= 0.70
     Davidson diagonalization with overlap
     ethr =  6.39E-06,  avg # of iterations = 15.0

     negative rho (up, down):  3.293E-02 0.000E+00

     total cpu time spent up to now is      727.4 secs

     total energy              =    -757.32669642 Ry
     Harris-Foulkes estimate   =    -757.32564257 Ry
     estimated scf accuracy    <       0.00286613 Ry

     iteration # 13     ecut=    70.00 Ry     beta= 0.70
     Davidson diagonalization with overlap
     ethr =  1.36E-06,  avg # of iterations =  6.0

     negative rho (up, down):  3.362E-02 0.000E+00

     total cpu time spent up to now is      780.6 secs

     total energy              =    -757.32630291 Ry
     Harris-Foulkes estimate   =    -757.32697882 Ry
     estimated scf accuracy    <       0.00142419 Ry

     iteration # 14     ecut=    70.00 Ry     beta= 0.70
     Davidson diagonalization with overlap
     ethr =  6.75E-07,  avg # of iterations =  3.0

     negative rho (up, down):  3.360E-02 0.000E+00

     total cpu time spent up to now is      831.4 secs

     total energy              =    -757.32664578 Ry
     Harris-Foulkes estimate   =    -757.32648684 Ry
     estimated scf accuracy    <       0.00144799 Ry

     iteration # 15     ecut=    70.00 Ry     beta= 0.70
     Davidson diagonalization with overlap
     ethr =  6.75E-07,  avg # of iterations =  3.0

     negative rho (up, down):  3.366E-02 0.000E+00

     total cpu time spent up to now is      880.8 secs

     total energy              =    -757.32693379 Ry
     Harris-Foulkes estimate   =    -757.32673629 Ry
     estimated scf accuracy    <       0.00052372 Ry

     iteration # 16     ecut=    70.00 Ry     beta= 0.70
     Davidson diagonalization with overlap
     ethr =  2.48E-07,  avg # of iterations =  3.0

     negative rho (up, down):  3.387E-02 0.000E+00

     total cpu time spent up to now is      930.8 secs

     total energy              =    -757.32698926 Ry
     Harris-Foulkes estimate   =    -757.32695779 Ry
     estimated scf accuracy    <       0.00002106 Ry

     iteration # 17     ecut=    70.00 Ry     beta= 0.70
     Davidson diagonalization with overlap
     ethr =  9.98E-09,  avg # of iterations =  3.0

     negative rho (up, down):  3.393E-02 0.000E+00

     total cpu time spent up to now is      982.4 secs

     total energy              =    -757.32699150 Ry
     Harris-Foulkes estimate   =    -757.32699490 Ry
     estimated scf accuracy    <       0.00004418 Ry

     iteration # 18     ecut=    70.00 Ry     beta= 0.70
     Davidson diagonalization with overlap
     ethr =  9.98E-09,  avg # of iterations =  1.0

     negative rho (up, down):  3.396E-02 0.000E+00

     total cpu time spent up to now is     1030.6 secs

     total energy              =    -757.32699244 Ry
     Harris-Foulkes estimate   =    -757.32699276 Ry
     estimated scf accuracy    <       0.00000560 Ry

     iteration # 19     ecut=    70.00 Ry     beta= 0.70
     Davidson diagonalization with overlap
     ethr =  2.65E-09,  avg # of iterations =  3.0

     negative rho (up, down):  3.399E-02 0.000E+00

     total cpu time spent up to now is     1079.2 secs

     End of self-consistent calculation

          k = 0.0000 0.0000 0.0000 ( 87777 PWs)   bands (ev):

   -62.7717 -37.8721 -37.8718 -36.5040 -19.6328 -18.7902 -18.7901 -18.7201
   -18.6781 -18.6779 -18.2368 -16.9378 -16.9365 -16.9365 -16.7949 -16.7948
   -16.5184 -16.0797 -16.0796 -15.9910 -15.8343 -15.8341 -15.0869 -13.8872
   -13.8811 -13.8809 -13.8672 -13.8671 -13.1456 -12.9222 -12.9222 -12.9019
   -12.5119 -12.5118 -12.1134 -11.6473 -11.6472 -11.5244 -11.1441 -11.1439
   -10.1541  -9.3412  -9.3410  -9.2624  -9.1837  -9.1836  -9.0975  -9.0699
    -9.0698  -9.0560  -8.4701  -8.4700  -7.8996  -7.8995  -7.8663  -7.7844
    -7.6830  -7.2588  -7.2586  -6.9412  -6.9338  -6.8979  -6.7981  -6.6908
    -6.6903  -6.6824  -6.5966  -6.5965  -6.5513  -6.4394  -6.4393  -6.3969
    -6.3925  -6.3923  -6.3389  -6.2807  -5.2654  -5.2653  -5.1273  -5.1261
    -4.9503  -4.9502  -4.8416  -4.7532  -4.6076  -4.5916  -4.5913  -4.2333
    -3.9689  -3.9688  -3.7316  -3.7313  -3.6447  -3.6346  -3.5047  -3.5047
    -2.8934  -2.2368  -2.2365  -2.2099  -2.2097  -1.7101  -1.6820  -1.6819
    -0.5519  -0.1400  -0.1399   0.8661   1.0761   1.0822   1.0826   1.8141
     2.0749   2.0750   2.6109   2.9220   2.9225   2.9853   3.4537   3.5023
     3.5226   3.7707   3.7804   3.8274   3.8948   4.0267   4.0272

     occupation numbers 
     1.0000   1.0000   1.0000   1.0000   1.0000   1.0000   1.0000   1.0000
     1.0000   1.0000   1.0000   1.0000   1.0000   1.0000   1.0000   1.0000
     1.0000   1.0000   1.0000   1.0000   1.0000   1.0000   1.0000   1.0000
     1.0000   1.0000   1.0000   1.0000   1.0000   1.0000   1.0000   1.0000
     1.0000   1.0000   1.0000   1.0000   1.0000   1.0000   1.0000   1.0000
     1.0000   1.0000   1.0000   1.0000   1.0000   1.0000   1.0000   1.0000
     1.0000   1.0000   1.0000   1.0000   1.0000   1.0000   1.0000   1.0000
     1.0000   1.0000   1.0000   1.0000   1.0000   1.0000   1.0000   1.0000
     1.0000   1.0000   1.0000   1.0000   1.0000   1.0000   1.0000   1.0000
     1.0000   1.0000   1.0000   1.0000   1.0000   1.0000   1.0000   1.0000
     1.0000   1.0000   1.0000   1.0000   1.0000   1.0000   1.0000   1.0000
     1.0000   1.0000   1.0000   1.0000   1.0000   1.0000   1.0000   1.0000
     1.0000   1.0000   1.0000   1.0000   1.0000   1.0000   1.0000   1.0000
     1.0000   0.2522   0.2478   0.0000   0.0000   0.0000   0.0000   0.0000
     0.0000   0.0000   0.0000   0.0000   0.0000   0.0000   0.0000   0.0000
     0.0000   0.0000   0.0000   0.0000   0.0000   0.0000   0.0000

     the Fermi energy is    -0.1433 ev

!    total energy              =    -757.32699213 Ry
     Harris-Foulkes estimate   =    -757.32699268 Ry
     estimated scf accuracy    <       0.00000057 Ry

     The total energy is the sum of the following terms:

     one-electron contribution =   -2573.35242697 Ry
     hartree contribution      =    1333.42673671 Ry
     xc contribution           =    -252.65590582 Ry
     ewald contribution        =     735.25521742 Ry
     smearing contrib. (-TS)   =      -0.00061348 Ry

     convergence has been achieved in  19 iterations

     Writing output data file gr-12-baricentro.save/

     init_run     :     47.01s CPU     48.22s WALL (       1 calls)
     electrons    :    998.83s CPU   1029.97s WALL (       1 calls)

     Called by init_run:
     wfcinit      :     20.77s CPU     20.92s WALL (       1 calls)
     wfcinit:atom :      0.04s CPU      0.05s WALL (       1 calls)
     wfcinit:wfcr :     20.58s CPU     20.68s WALL (       1 calls)
     potinit      :     11.78s CPU     12.22s WALL (       1 calls)
     hinit0       :      9.89s CPU      9.94s WALL (       1 calls)

     Called by electrons:
     c_bands      :    612.70s CPU    616.19s WALL (      19 calls)
     sum_band     :    190.28s CPU    200.94s WALL (      19 calls)
     v_of_rho     :    120.80s CPU    128.18s WALL (      20 calls)
     v_h          :      1.38s CPU      1.43s WALL (      20 calls)
     v_xc         :    119.41s CPU    126.75s WALL (      20 calls)
     newd         :     79.24s CPU     89.67s WALL (      20 calls)
     mix_rho      :      3.68s CPU      3.74s WALL (      19 calls)

     Called by c_bands:
     init_us_2    :      1.62s CPU      1.66s WALL (      39 calls)
     cegterg      :    608.09s CPU    611.57s WALL (      19 calls)

     Called by sum_band:
     sum_band:bec :      0.01s CPU      0.01s WALL (      19 calls)
     addusdens    :    117.30s CPU    127.40s WALL (      19 calls)

     Called by *egterg:
     h_psi        :    324.16s CPU    326.58s WALL (     103 calls)
     s_psi        :    108.88s CPU    108.97s WALL (     103 calls)
     g_psi        :      0.35s CPU      0.35s WALL (      83 calls)
     cdiaghg      :      7.41s CPU      7.41s WALL (     102 calls)
     cegterg:over :     74.50s CPU     74.53s WALL (      83 calls)
     cegterg:upda :     47.23s CPU     47.56s WALL (      83 calls)
     cegterg:last :     31.07s CPU     31.08s WALL (      19 calls)

     Called by h_psi:
     h_psi:pot    :    323.81s CPU    325.81s WALL (     103 calls)
     h_psi:calbec :    108.85s CPU    108.91s WALL (     103 calls)
     vloc_psi     :    105.56s CPU    107.47s WALL (     103 calls)
     add_vuspsi   :    109.39s CPU    109.42s WALL (     103 calls)

     General routines
     calbec       :    153.88s CPU    153.96s WALL (     122 calls)
     fft          :     67.31s CPU     69.92s WALL (    1258 calls)
     ffts         :      0.68s CPU      0.70s WALL (      39 calls)
     fftw         :    111.53s CPU    113.65s WALL (   14107 calls)
     interpolate  :      1.65s CPU      1.70s WALL (      20 calls)

     Parallel routines
     fft_scatt_xy :     31.10s CPU     31.48s WALL (   15404 calls)
     fft_scatt_yz :     61.38s CPU     64.77s WALL (   15404 calls)

     PWSCF        :  17m27.02s CPU  17m59.64s WALL


   This run was terminated on:  10:10:39  21Jul2022            

=------------------------------------------------------------------------------=
   JOB DONE.
=------------------------------------------------------------------------------=
