
     Program PWSCF v.6.4.1 starts on 27Jun2022 at  8: 8:31 

     This program is part of the open-source Quantum ESPRESSO suite
     for quantum simulation of materials; please cite
         "P. Giannozzi et al., J. Phys.:Condens. Matter 21 395502 (2009);
         "P. Giannozzi et al., J. Phys.:Condens. Matter 29 465901 (2017);
          URL http://www.quantum-espresso.org", 
     in publications or presentations arising from this work. More details at
     http://www.quantum-espresso.org/quote

     Parallel version (MPI), running on     6 processors

     MPI processes distributed on     1 nodes
     R & G space division:  proc/nbgrp/npool/nimage =       6
     Reading input from bridge.in

     Current dimensions of program PWSCF are:
     Max number of different atomic species (ntypx) = 10
     Max number of k-points (npk) =  40000
     Max angular momentum in pseudopotentials (lmaxx) =  3

     IMPORTANT: XC functional enforced from input :
     Exchange-correlation      = RVV10 ( 1  4 13  4 3 0)
     Any further DFT definition will be discarded
     Please, verify this is what you really want

               file H.pbe-rrkjus.UPF: wavefunction(s)  1S renormalized

     Subspace diagonalization in iterative solution of the eigenvalue problem:
     a serial algorithm will be used


     Parallelization info
     --------------------
     sticks:   dense  smooth     PW     G-vecs:    dense   smooth      PW
     Min        3052    1746    452               406522   175650   23198
     Max        3053    1747    453               406526   175655   23203
     Sum       18313   10477   2713              2439139  1053907  139193



     bravais-lattice index     =            4
     lattice parameter (alat)  =      23.2937  a.u.
     unit-cell volume          =   13319.7822 (a.u.)^3
     number of atoms/cell      =           52
     number of atomic types    =            2
     number of electrons       =       202.00
     number of Kohn-Sham states=          121
     kinetic-energy cutoff     =      70.0000  Ry
     charge density cutoff     =     490.0000  Ry
     convergence threshold     =      1.0E-06
     mixing beta               =       0.7000
     number of iterations used =            8  plain     mixing
     Exchange-correlation      = RVV10 ( 1  4 13  4 3 0)

     celldm(1)=  23.293684  celldm(2)=   0.000000  celldm(3)=   1.216892
     celldm(4)=   0.000000  celldm(5)=   0.000000  celldm(6)=   0.000000

     crystal axes: (cart. coord. in units of alat)
               a(1) = (   1.000000   0.000000   0.000000 )  
               a(2) = (  -0.500000   0.866025   0.000000 )  
               a(3) = (   0.000000   0.000000   1.216892 )  

     reciprocal axes: (cart. coord. in units 2 pi/alat)
               b(1) = (  1.000000  0.577350 -0.000000 )  
               b(2) = (  0.000000  1.154701  0.000000 )  
               b(3) = (  0.000000 -0.000000  0.821766 )  


     PseudoPot. # 1 for H  read from file:
     /home/cristian/Escritorio/Proyecto_Grafeno/pseudopotenciales/H.pbe-rrkjus.UPF
     MD5 check sum: 7cc9d459525c9a0585f487a71c3c9563
     Pseudo is Ultrasoft, Zval =  1.0
     Generated by new atomic code, or converted to UPF format
     Using radial grid of 1061 points,  2 beta functions with: 
                l(1) =   0
                l(2) =   0
     Q(r) pseudized with 0 coefficients 


     PseudoPot. # 2 for C  read from file:
     /home/cristian/Escritorio/Proyecto_Grafeno/pseudopotenciales/C.pbe-n-rrkjus_psl.1.0.0.UPF
     MD5 check sum: 1fdd950c42eb37d8afe3dd2f8d12311e
     Pseudo is Ultrasoft + core correction, Zval =  4.0
     Generated using "atomic" code by A. Dal Corso v.6.3MaX
     Using radial grid of 1073 points,  4 beta functions with: 
                l(1) =   0
                l(2) =   0
                l(3) =   1
                l(4) =   1
     Q(r) pseudized with 0 coefficients 


     vdW kernel table read from file rVV10_kernel_table
     MD5 check sum: b8e2538accc0c0b3206b45ba4daaba6c

     atomic species   valence    mass     pseudopotential
        H              1.00     1.00794     H ( 1.00)
        C              4.00    12.01070     C ( 1.00)

     No symmetry found


                                    s                        frac. trans.

      isym =  1     identity                                     

 cryst.   s( 1) = (     1          0          0      )
                  (     0          1          0      )
                  (     0          0          1      )

 cart.    s( 1) = (  1.0000000  0.0000000  0.0000000 )
                  (  0.0000000  1.0000000  0.0000000 )
                  (  0.0000000  0.0000000  1.0000000 )


     point group C_1 (1)    
     there are  1 classes
     the character table:

       E    
A      1.00

     the symmetry operations in each class and the name of the first element:

     E        1
          identity                                               

   Cartesian axes

     site n.     atom                  positions (alat units)
         1           H   tau(   1) = (   0.2194937   0.4907477   0.1135766  )
         2           H   tau(   2) = (   0.2805063   0.4907477   0.1135766  )
         3           C   tau(   3) = (   0.0000000   0.0000000   0.0000000  )
         4           C   tau(   4) = (   0.0000000   0.1154701   0.0000000  )
         5           C   tau(   5) = (  -0.1000000   0.1732051   0.0000000  )
         6           C   tau(   6) = (  -0.1000000   0.2886751   0.0000000  )
         7           C   tau(   7) = (  -0.2000000   0.3464102   0.0000000  )
         8           C   tau(   8) = (  -0.2000000   0.4618802   0.0000000  )
         9           C   tau(   9) = (  -0.3000000   0.5196152   0.0000000  )
        10           C   tau(  10) = (  -0.3000000   0.6350853   0.0000000  )
        11           C   tau(  11) = (  -0.4000000   0.6928203   0.0000000  )
        12           C   tau(  12) = (  -0.4000000   0.8082904   0.0000000  )
        13           C   tau(  13) = (   0.2000000   0.0000000   0.0000000  )
        14           C   tau(  14) = (   0.2000000   0.1154701   0.0000000  )
        15           C   tau(  15) = (   0.1000000   0.1732051   0.0000000  )
        16           C   tau(  16) = (   0.1000000   0.2886751   0.0000000  )
        17           C   tau(  17) = (   0.0000000   0.3464102   0.0000000  )
        18           C   tau(  18) = (   0.0000000   0.4618802   0.0000000  )
        19           C   tau(  19) = (  -0.1000000   0.5196152   0.0000000  )
        20           C   tau(  20) = (  -0.1000000   0.6350853   0.0000000  )
        21           C   tau(  21) = (  -0.2000000   0.6928203   0.0000000  )
        22           C   tau(  22) = (  -0.2000000   0.8082904   0.0000000  )
        23           C   tau(  23) = (   0.4000000   0.0000000   0.0000000  )
        24           C   tau(  24) = (   0.4000000   0.1154701   0.0000000  )
        25           C   tau(  25) = (   0.3000000   0.1732051   0.0000000  )
        26           C   tau(  26) = (   0.3000000   0.2886751   0.0000000  )
        27           C   tau(  27) = (   0.2000000   0.3464102   0.0000000  )
        28           C   tau(  28) = (   0.2000000   0.4618802   0.0000000  )
        29           C   tau(  29) = (   0.1000000   0.5196152   0.0000000  )
        30           C   tau(  30) = (   0.1000000   0.6350853   0.0000000  )
        31           C   tau(  31) = (   0.0000000   0.6928203   0.0000000  )
        32           C   tau(  32) = (   0.0000000   0.8082904   0.0000000  )
        33           C   tau(  33) = (   0.6000000   0.0000000   0.0000000  )
        34           C   tau(  34) = (   0.6000000   0.1154701   0.0000000  )
        35           C   tau(  35) = (   0.5000000   0.1732051   0.0000000  )
        36           C   tau(  36) = (   0.5000000   0.2886751   0.0000000  )
        37           C   tau(  37) = (   0.4000000   0.3464102   0.0000000  )
        38           C   tau(  38) = (   0.4000000   0.4618802   0.0000000  )
        39           C   tau(  39) = (   0.3000000   0.5196152   0.0000000  )
        40           C   tau(  40) = (   0.3000000   0.6350853   0.0000000  )
        41           C   tau(  41) = (   0.2000000   0.6928203   0.0000000  )
        42           C   tau(  42) = (   0.2000000   0.8082904   0.0000000  )
        43           C   tau(  43) = (   0.8000000   0.0000000   0.0000000  )
        44           C   tau(  44) = (   0.8000000   0.1154701   0.0000000  )
        45           C   tau(  45) = (   0.7000000   0.1732051   0.0000000  )
        46           C   tau(  46) = (   0.7000000   0.2886751   0.0000000  )
        47           C   tau(  47) = (   0.6000000   0.3464102   0.0000000  )
        48           C   tau(  48) = (   0.6000000   0.4618802   0.0000000  )
        49           C   tau(  49) = (   0.5000000   0.5196152   0.0000000  )
        50           C   tau(  50) = (   0.5000000   0.6350853   0.0000000  )
        51           C   tau(  51) = (   0.4000000   0.6928203   0.0000000  )
        52           C   tau(  52) = (   0.4000000   0.8082904   0.0000000  )

   Crystallographic axes

     site n.     atom                  positions (cryst. coord.)
         1           H   tau(   1) = (  0.5028270  0.5666667  0.0933333  )
         2           H   tau(   2) = (  0.5638397  0.5666667  0.0933333  )
         3           C   tau(   3) = (  0.0000000  0.0000000  0.0000000  )
         4           C   tau(   4) = (  0.0666667  0.1333333  0.0000000  )
         5           C   tau(   5) = (  0.0000000  0.2000000  0.0000000  )
         6           C   tau(   6) = (  0.0666667  0.3333333  0.0000000  )
         7           C   tau(   7) = (  0.0000000  0.4000000  0.0000000  )
         8           C   tau(   8) = (  0.0666667  0.5333333  0.0000000  )
         9           C   tau(   9) = (  0.0000000  0.6000000  0.0000000  )
        10           C   tau(  10) = (  0.0666667  0.7333333  0.0000000  )
        11           C   tau(  11) = (  0.0000000  0.8000000  0.0000000  )
        12           C   tau(  12) = (  0.0666667  0.9333333  0.0000000  )
        13           C   tau(  13) = (  0.2000000  0.0000000  0.0000000  )
        14           C   tau(  14) = (  0.2666667  0.1333333  0.0000000  )
        15           C   tau(  15) = (  0.2000000  0.2000000  0.0000000  )
        16           C   tau(  16) = (  0.2666667  0.3333333  0.0000000  )
        17           C   tau(  17) = (  0.2000000  0.4000000  0.0000000  )
        18           C   tau(  18) = (  0.2666667  0.5333333  0.0000000  )
        19           C   tau(  19) = (  0.2000000  0.6000000  0.0000000  )
        20           C   tau(  20) = (  0.2666667  0.7333333  0.0000000  )
        21           C   tau(  21) = (  0.2000000  0.8000000  0.0000000  )
        22           C   tau(  22) = (  0.2666667  0.9333333  0.0000000  )
        23           C   tau(  23) = (  0.4000000  0.0000000  0.0000000  )
        24           C   tau(  24) = (  0.4666667  0.1333333  0.0000000  )
        25           C   tau(  25) = (  0.4000000  0.2000000  0.0000000  )
        26           C   tau(  26) = (  0.4666667  0.3333333  0.0000000  )
        27           C   tau(  27) = (  0.4000000  0.4000000  0.0000000  )
        28           C   tau(  28) = (  0.4666667  0.5333333  0.0000000  )
        29           C   tau(  29) = (  0.4000000  0.6000000  0.0000000  )
        30           C   tau(  30) = (  0.4666667  0.7333333  0.0000000  )
        31           C   tau(  31) = (  0.4000000  0.8000000  0.0000000  )
        32           C   tau(  32) = (  0.4666667  0.9333333  0.0000000  )
        33           C   tau(  33) = (  0.6000000  0.0000000  0.0000000  )
        34           C   tau(  34) = (  0.6666667  0.1333333  0.0000000  )
        35           C   tau(  35) = (  0.6000000  0.2000000  0.0000000  )
        36           C   tau(  36) = (  0.6666667  0.3333333  0.0000000  )
        37           C   tau(  37) = (  0.6000000  0.4000000  0.0000000  )
        38           C   tau(  38) = (  0.6666667  0.5333333  0.0000000  )
        39           C   tau(  39) = (  0.6000000  0.6000000  0.0000000  )
        40           C   tau(  40) = (  0.6666667  0.7333333  0.0000000  )
        41           C   tau(  41) = (  0.6000000  0.8000000  0.0000000  )
        42           C   tau(  42) = (  0.6666667  0.9333333  0.0000000  )
        43           C   tau(  43) = (  0.8000000  0.0000000  0.0000000  )
        44           C   tau(  44) = (  0.8666667  0.1333333  0.0000000  )
        45           C   tau(  45) = (  0.8000000  0.2000000  0.0000000  )
        46           C   tau(  46) = (  0.8666667  0.3333333  0.0000000  )
        47           C   tau(  47) = (  0.8000000  0.4000000  0.0000000  )
        48           C   tau(  48) = (  0.8666667  0.5333333  0.0000000  )
        49           C   tau(  49) = (  0.8000000  0.6000000  0.0000000  )
        50           C   tau(  50) = (  0.8666667  0.7333333  0.0000000  )
        51           C   tau(  51) = (  0.8000000  0.8000000  0.0000000  )
        52           C   tau(  52) = (  0.8666667  0.9333333  0.0000000  )

     number of k points=     4  Marzari-Vanderbilt smearing, width (Ry)=  0.0010
                       cart. coord. in units 2pi/alat
        k(    1) = (   0.0000000   0.0000000   0.0000000), wk =   0.5000000
        k(    2) = (   0.0000000  -0.5773503   0.0000000), wk =   0.5000000
        k(    3) = (   0.5000000  -0.2886751   0.0000000), wk =   0.5000000
        k(    4) = (  -0.5000000  -0.2886751   0.0000000), wk =   0.5000000

                       cryst. coord.
        k(    1) = (   0.0000000   0.0000000   0.0000000), wk =   0.5000000
        k(    2) = (   0.0000000  -0.5000000   0.0000000), wk =   0.5000000
        k(    3) = (   0.5000000  -0.5000000   0.0000000), wk =   0.5000000
        k(    4) = (  -0.5000000   0.0000000   0.0000000), wk =   0.5000000

     Dense  grid:  2439139 G-vectors     FFT dimensions: ( 180, 180, 200)

     Smooth grid:  1053907 G-vectors     FFT dimensions: ( 125, 125, 160)

     Dynamical RAM for                 wfc:      40.54 MB

     Dynamical RAM for     wfc (w. buffer):     202.68 MB

     Dynamical RAM for           str. fact:      12.41 MB

     Dynamical RAM for           local pot:       0.00 MB

     Dynamical RAM for          nlocal pot:     135.34 MB

     Dynamical RAM for                qrad:       3.76 MB

     Dynamical RAM for          rho,v,vnew:      43.82 MB

     Dynamical RAM for               rhoin:      14.61 MB

     Dynamical RAM for            rho*nmix:      99.25 MB

     Dynamical RAM for           G-vectors:      24.60 MB

     Dynamical RAM for          h,s,v(r/c):      10.72 MB

     Dynamical RAM for          <psi|beta>:       0.75 MB

     Dynamical RAM for                 psi:     162.14 MB

     Dynamical RAM for                hpsi:     162.14 MB

     Dynamical RAM for                spsi:     162.14 MB

     Dynamical RAM for      wfcinit/wfcrot:     136.28 MB

     Dynamical RAM for           addusdens:     576.88 MB

     Estimated static dynamical RAM per process >     597.10 MB

     Estimated max dynamical RAM per process >       1.15 GB

     Estimated total dynamical RAM >       6.88 GB

     Check: negative core charge=   -0.000001

     Initial potential from superposition of free atoms

     starting charge  201.80551, renormalised to  202.00000

     negative rho (up, down):  1.187E-03 0.000E+00


---------------------------------------------------------------------------------
Carrying out rVV10 run using the following parameters:
Nqs =      20    Nr_points =    1024   r_max =   100.000
b_value =  6.30000    beta =  0.00901
     q_mesh =  0.00010000  0.00030000  0.00058939  0.00100810
               0.00161396  0.00249058  0.00375900  0.00559430
               0.00824984  0.01209221  0.01765183  0.02569619
               0.03733578  0.05417739  0.07854596  0.11380545
               0.16482331  0.23864234  0.34545298  0.50000000

Gradients computed in Reciprocal space

---------------------------------------------------------------------------------


     Starting wfcs are  202 randomized atomic wfcs

     total cpu time spent up to now is      164.6 secs

     Self-consistent Calculation

     iteration #  1     ecut=    70.00 Ry     beta= 0.70
     Davidson diagonalization with overlap
     ethr =  1.00E-02,  avg # of iterations =  3.0

     negative rho (up, down):  1.344E-03 0.000E+00

     total cpu time spent up to now is      478.9 secs

     total energy              =    -622.93016622 Ry
     Harris-Foulkes estimate   =    -628.36559940 Ry
     estimated scf accuracy    <       8.08588789 Ry

     iteration #  2     ecut=    70.00 Ry     beta= 0.70
     Davidson diagonalization with overlap
     ethr =  4.00E-03,  avg # of iterations =  6.5

     negative rho (up, down):  1.475E-03 0.000E+00

     total cpu time spent up to now is      766.0 secs

     total energy              =    -619.26548261 Ry
     Harris-Foulkes estimate   =    -628.14908789 Ry
     estimated scf accuracy    <      21.93826653 Ry

     iteration #  3     ecut=    70.00 Ry     beta= 0.70
     Davidson diagonalization with overlap
     ethr =  4.00E-03,  avg # of iterations =  4.8

     negative rho (up, down):  1.546E-03 0.000E+00

     total cpu time spent up to now is     1102.2 secs

     total energy              =    -624.33174545 Ry
     Harris-Foulkes estimate   =    -626.44566755 Ry
     estimated scf accuracy    <       7.39759038 Ry

     iteration #  4     ecut=    70.00 Ry     beta= 0.70
     Davidson diagonalization with overlap
     ethr =  3.66E-03,  avg # of iterations =  3.0

     negative rho (up, down):  1.598E-03 0.000E+00

     total cpu time spent up to now is     1321.8 secs

     total energy              =    -625.27765681 Ry
     Harris-Foulkes estimate   =    -625.47600811 Ry
     estimated scf accuracy    <       0.48951950 Ry

     iteration #  5     ecut=    70.00 Ry     beta= 0.70
     Davidson diagonalization with overlap
     ethr =  2.42E-04,  avg # of iterations =  7.8

     negative rho (up, down):  1.685E-03 0.000E+00

     total cpu time spent up to now is     1603.6 secs

     total energy              =    -625.36782267 Ry
     Harris-Foulkes estimate   =    -625.37685964 Ry
     estimated scf accuracy    <       0.03623068 Ry

     iteration #  6     ecut=    70.00 Ry     beta= 0.70
     Davidson diagonalization with overlap
     ethr =  1.79E-05,  avg # of iterations = 11.0

     negative rho (up, down):  1.850E-03 0.000E+00

     total cpu time spent up to now is     1855.0 secs

     total energy              =    -625.36863151 Ry
     Harris-Foulkes estimate   =    -625.37095246 Ry
     estimated scf accuracy    <       0.00733153 Ry

     iteration #  7     ecut=    70.00 Ry     beta= 0.70
     Davidson diagonalization with overlap
     ethr =  3.63E-06,  avg # of iterations =  6.5

     negative rho (up, down):  1.893E-03 0.000E+00

     total cpu time spent up to now is     2139.6 secs

     total energy              =    -625.36895660 Ry
     Harris-Foulkes estimate   =    -625.37040548 Ry
     estimated scf accuracy    <       0.00280041 Ry

     iteration #  8     ecut=    70.00 Ry     beta= 0.70
     Davidson diagonalization with overlap
     ethr =  1.39E-06,  avg # of iterations =  5.5

     negative rho (up, down):  1.886E-03 0.000E+00

     total cpu time spent up to now is     2415.4 secs

     total energy              =    -625.36959761 Ry
     Harris-Foulkes estimate   =    -625.36995769 Ry
     estimated scf accuracy    <       0.00088763 Ry

     iteration #  9     ecut=    70.00 Ry     beta= 0.70
     Davidson diagonalization with overlap
     ethr =  4.39E-07,  avg # of iterations =  2.2

     negative rho (up, down):  1.887E-03 0.000E+00

     total cpu time spent up to now is     2644.6 secs

     total energy              =    -625.36976135 Ry
     Harris-Foulkes estimate   =    -625.36978569 Ry
     estimated scf accuracy    <       0.00005171 Ry

     iteration # 10     ecut=    70.00 Ry     beta= 0.70
     Davidson diagonalization with overlap
     ethr =  2.56E-08,  avg # of iterations =  2.2

     negative rho (up, down):  1.892E-03 0.000E+00

     total cpu time spent up to now is     2905.4 secs

     total energy              =    -625.36977303 Ry
     Harris-Foulkes estimate   =    -625.36977679 Ry
     estimated scf accuracy    <       0.00000687 Ry

     iteration # 11     ecut=    70.00 Ry     beta= 0.70
     Davidson diagonalization with overlap
     ethr =  3.40E-09,  avg # of iterations =  2.2

     negative rho (up, down):  1.892E-03 0.000E+00

     total cpu time spent up to now is     3164.2 secs

     End of self-consistent calculation

          k = 0.0000 0.0000 0.0000 (131685 PWs)   bands (ev):

   -21.3430 -20.6464 -20.3334 -20.3135 -20.2992 -20.2970 -20.2912 -18.7452
   -18.5124 -18.4908 -18.4763 -18.4678 -18.4644 -17.7527 -17.6240 -17.5947
   -17.5830 -17.5781 -17.5743 -15.6771 -15.4925 -15.4545 -15.4389 -15.4283
   -15.4232 -14.5537 -14.4867 -14.4638 -14.4306 -14.4284 -14.4257 -13.2470
   -13.1346 -13.1159 -13.0952 -13.0901 -13.0872 -11.3982 -10.7892 -10.7568
   -10.7534 -10.7262 -10.7240 -10.6557 -10.6440 -10.6208 -10.6107 -10.6033
   -10.6014 -10.4369  -9.3002  -9.2782  -9.2468  -9.2421  -9.2395  -9.2289
    -9.1443  -8.3042  -8.2695  -8.2475  -8.2454  -8.2405  -8.0838  -8.0404
    -8.0252  -7.9792  -7.9758  -7.9753  -7.9620  -7.9580  -7.9480  -7.9367
    -7.9303  -7.9253  -7.1783  -6.3894  -6.3723  -6.3570  -6.3421  -6.3314
    -6.3312  -6.2516  -6.1463  -6.1290  -6.1205  -6.1156  -5.6296  -5.3531
    -5.2362  -5.2352  -5.2231  -5.2185  -4.8847  -4.8804  -4.0376  -3.4185
    -3.2602  -3.2473  -3.2352  -3.2296  -2.4037  -0.7455  -0.4865  -0.4585
    -0.4482  -0.4382  -0.3063   1.0966   1.2579   1.3406   1.4054   1.4106
     1.4135   1.4939   2.2131   2.4458   2.5261   2.5798   2.5809   2.5833
     2.6906

     occupation numbers 
     1.0000   1.0000   1.0000   1.0000   1.0000   1.0000   1.0000   1.0000
     1.0000   1.0000   1.0000   1.0000   1.0000   1.0000   1.0000   1.0000
     1.0000   1.0000   1.0000   1.0000   1.0000   1.0000   1.0000   1.0000
     1.0000   1.0000   1.0000   1.0000   1.0000   1.0000   1.0000   1.0000
     1.0000   1.0000   1.0000   1.0000   1.0000   1.0000   1.0000   1.0000
     1.0000   1.0000   1.0000   1.0000   1.0000   1.0000   1.0000   1.0000
     1.0000   1.0000   1.0000   1.0000   1.0000   1.0000   1.0000   1.0000
     1.0000   1.0000   1.0000   1.0000   1.0000   1.0000   1.0000   1.0000
     1.0000   1.0000   1.0000   1.0000   1.0000   1.0000   1.0000   1.0000
     1.0000   1.0000   1.0000   1.0000   1.0000   1.0000   1.0000   1.0000
     1.0000   1.0000   1.0000   1.0000   1.0000   1.0000   1.0000   1.0000
     1.0000   1.0000   1.0000   1.0000   1.0000   1.0000   1.0000   1.0000
     1.0000   1.0000   1.0000   1.0000   1.0000   0.0000   0.0000   0.0000
     0.0000   0.0000   0.0000   0.0000   0.0000   0.0000   0.0000   0.0000
     0.0000   0.0000   0.0000   0.0000   0.0000   0.0000   0.0000   0.0000
     0.0000

          k = 0.0000-0.5774 0.0000 (131762 PWs)   bands (ev):

   -21.2033 -21.0014 -20.6407 -20.5458 -19.8226 -19.6266 -19.6208 -19.6077
   -19.2196 -19.1594 -18.3871 -18.3005 -18.2390 -18.2377 -17.1309 -16.9527
   -16.9402 -16.9271 -16.6122 -16.5635 -16.5279 -16.5246 -16.0848 -15.3630
   -15.3393 -14.9924 -14.2483 -14.1687 -14.1089 -14.1043 -13.7275 -13.6568
   -12.8031 -12.7511 -12.7124 -12.7037 -11.9825 -11.9356 -11.8835 -11.7930
   -11.7490 -11.7476 -11.0360 -10.5471 -10.4965 -10.3396 -10.3073 -10.2905
   -10.2718  -9.2925  -9.2849  -9.2689  -9.2628  -9.0842  -8.9433  -8.9308
    -8.8847  -8.8756  -8.8204  -8.5505  -8.4430  -8.4415  -8.4132  -8.4079
    -8.2411  -8.1256  -7.5294  -7.5282  -7.5142  -7.4966  -7.4803  -7.4481
    -7.4334  -7.3558  -7.3159  -7.1448  -7.1244  -7.0818  -6.9227  -6.3705
    -6.2865  -6.2711  -6.0391  -5.8857  -5.8837  -5.8046  -5.7700  -5.3882
    -5.3243  -5.2513  -4.5450  -4.4643  -4.4471  -4.3386  -4.3304  -4.2502
    -4.2397  -4.1331  -3.0616  -2.8555  -2.4417  -0.8384  -0.6482  -0.1675
     0.0602   0.3092   0.3122   0.3658   0.7990   0.9333   0.9488   0.9604
     1.6107   1.7550   2.1586   2.3281   2.3519   2.4368   2.5518   2.5763
     2.5782

     occupation numbers 
     1.0000   1.0000   1.0000   1.0000   1.0000   1.0000   1.0000   1.0000
     1.0000   1.0000   1.0000   1.0000   1.0000   1.0000   1.0000   1.0000
     1.0000   1.0000   1.0000   1.0000   1.0000   1.0000   1.0000   1.0000
     1.0000   1.0000   1.0000   1.0000   1.0000   1.0000   1.0000   1.0000
     1.0000   1.0000   1.0000   1.0000   1.0000   1.0000   1.0000   1.0000
     1.0000   1.0000   1.0000   1.0000   1.0000   1.0000   1.0000   1.0000
     1.0000   1.0000   1.0000   1.0000   1.0000   1.0000   1.0000   1.0000
     1.0000   1.0000   1.0000   1.0000   1.0000   1.0000   1.0000   1.0000
     1.0000   1.0000   1.0000   1.0000   1.0000   1.0000   1.0000   1.0000
     1.0000   1.0000   1.0000   1.0000   1.0000   1.0000   1.0000   1.0000
     1.0000   1.0000   1.0000   1.0000   1.0000   1.0000   1.0000   1.0000
     1.0000   1.0000   1.0000   1.0000   1.0000   1.0000   1.0000   1.0000
     1.0000   1.0000   1.0000   1.0000   1.0000   0.0000   0.0000   0.0000
     0.0000   0.0000   0.0000   0.0000   0.0000   0.0000   0.0000   0.0000
     0.0000   0.0000   0.0000   0.0000   0.0000   0.0000   0.0000   0.0000
     0.0000

          k = 0.5000-0.2887 0.0000 (131762 PWs)   bands (ev):

   -21.2010 -21.0059 -20.6437 -20.5386 -19.8237 -19.6357 -19.6145 -19.6054
   -19.2154 -19.1657 -18.3937 -18.2839 -18.2437 -18.2412 -17.1245 -16.9721
   -16.9294 -16.9238 -16.6162 -16.5606 -16.5265 -16.5264 -16.0789 -15.3712
   -15.3391 -15.0001 -14.2550 -14.1495 -14.1120 -14.1071 -13.7215 -13.6491
   -12.7911 -12.7781 -12.7091 -12.6987 -11.9801 -11.9406 -11.8955 -11.7774
   -11.7523 -11.7518 -11.0345 -10.5560 -10.5193 -10.3200 -10.2985 -10.2969
   -10.2568  -9.2844  -9.2817  -9.2726  -9.2676  -9.0907  -8.9425  -8.9347
    -8.8806  -8.8763  -8.8252  -8.5374  -8.4447  -8.4418  -8.4129  -8.4128
    -8.2438  -8.1235  -7.5328  -7.5298  -7.5107  -7.4963  -7.4870  -7.4451
    -7.4308  -7.3492  -7.3195  -7.1505  -7.1164  -7.0742  -6.9396  -6.3796
    -6.3003  -6.2693  -6.0008  -5.8907  -5.8873  -5.8028  -5.7743  -5.3884
    -5.3283  -5.2268  -4.5785  -4.4576  -4.4445  -4.3366  -4.3317  -4.2455
    -4.2406  -4.1285  -3.1040  -2.8596  -2.4017  -0.7894  -0.6613  -0.2588
     0.1655   0.3070   0.3145   0.3640   0.7041   0.9334   0.9509   0.9634
     1.6015   1.7570   2.2222   2.3254   2.4263   2.4403   2.5444   2.5698
     2.5747

     occupation numbers 
     1.0000   1.0000   1.0000   1.0000   1.0000   1.0000   1.0000   1.0000
     1.0000   1.0000   1.0000   1.0000   1.0000   1.0000   1.0000   1.0000
     1.0000   1.0000   1.0000   1.0000   1.0000   1.0000   1.0000   1.0000
     1.0000   1.0000   1.0000   1.0000   1.0000   1.0000   1.0000   1.0000
     1.0000   1.0000   1.0000   1.0000   1.0000   1.0000   1.0000   1.0000
     1.0000   1.0000   1.0000   1.0000   1.0000   1.0000   1.0000   1.0000
     1.0000   1.0000   1.0000   1.0000   1.0000   1.0000   1.0000   1.0000
     1.0000   1.0000   1.0000   1.0000   1.0000   1.0000   1.0000   1.0000
     1.0000   1.0000   1.0000   1.0000   1.0000   1.0000   1.0000   1.0000
     1.0000   1.0000   1.0000   1.0000   1.0000   1.0000   1.0000   1.0000
     1.0000   1.0000   1.0000   1.0000   1.0000   1.0000   1.0000   1.0000
     1.0000   1.0000   1.0000   1.0000   1.0000   1.0000   1.0000   1.0000
     1.0000   1.0000   1.0000   1.0000   1.0000   0.0000   0.0000   0.0000
     0.0000   0.0000   0.0000   0.0000   0.0000   0.0000   0.0000   0.0000
     0.0000   0.0000   0.0000   0.0000   0.0000   0.0000   0.0000   0.0000
     0.0000

          k =-0.5000-0.2887 0.0000 (131762 PWs)   bands (ev):

   -21.2037 -20.9990 -20.6444 -20.5474 -19.8096 -19.6277 -19.6192 -19.6147
   -19.2104 -19.1693 -18.4207 -18.2815 -18.2360 -18.2355 -17.0719 -16.9867
   -16.9384 -16.9316 -16.6438 -16.5382 -16.5335 -16.5295 -16.0631 -15.4131
   -15.3250 -15.0247 -14.1764 -14.1607 -14.1339 -14.1042 -13.6684 -13.6520
   -12.9368 -12.7313 -12.7094 -12.7032 -12.0162 -11.9290 -11.7926 -11.7849
   -11.7723 -11.7564 -11.0102 -10.5464 -10.4817 -10.3750 -10.3077 -10.2900
   -10.2887  -9.2859  -9.2795  -9.2708  -9.2683  -9.0856  -8.9639  -8.9096
    -8.8849  -8.8795  -8.8315  -8.5399  -8.4671  -8.4202  -8.4167  -8.4035
    -8.2354  -8.0871  -7.5370  -7.5189  -7.5158  -7.5035  -7.4817  -7.4474
    -7.4401  -7.3458  -7.3251  -7.1316  -7.1232  -7.0700  -6.9659  -6.4930
    -6.2781  -6.2718  -5.9311  -5.8842  -5.8836  -5.8145  -5.7653  -5.3684
    -5.3282  -5.1163  -4.6959  -4.4644  -4.4500  -4.3725  -4.2630  -4.2616
    -4.2446  -4.1358  -3.2648  -2.7775  -2.2242  -0.9283  -0.7416  -0.0172
     0.0569   0.2348   0.3088   0.3157   0.8763   0.9212   0.9441   0.9607
     1.6040   1.7787   2.2070   2.3042   2.3970   2.5207   2.5475   2.5490
     2.5538

     occupation numbers 
     1.0000   1.0000   1.0000   1.0000   1.0000   1.0000   1.0000   1.0000
     1.0000   1.0000   1.0000   1.0000   1.0000   1.0000   1.0000   1.0000
     1.0000   1.0000   1.0000   1.0000   1.0000   1.0000   1.0000   1.0000
     1.0000   1.0000   1.0000   1.0000   1.0000   1.0000   1.0000   1.0000
     1.0000   1.0000   1.0000   1.0000   1.0000   1.0000   1.0000   1.0000
     1.0000   1.0000   1.0000   1.0000   1.0000   1.0000   1.0000   1.0000
     1.0000   1.0000   1.0000   1.0000   1.0000   1.0000   1.0000   1.0000
     1.0000   1.0000   1.0000   1.0000   1.0000   1.0000   1.0000   1.0000
     1.0000   1.0000   1.0000   1.0000   1.0000   1.0000   1.0000   1.0000
     1.0000   1.0000   1.0000   1.0000   1.0000   1.0000   1.0000   1.0000
     1.0000   1.0000   1.0000   1.0000   1.0000   1.0000   1.0000   1.0000
     1.0000   1.0000   1.0000   1.0000   1.0000   1.0000   1.0000   1.0000
     1.0000   1.0000   1.0000   1.0000   1.0000   0.0000   0.0000   0.0000
     0.0000   0.0000   0.0000   0.0000   0.0000   0.0000   0.0000   0.0000
     0.0000   0.0000   0.0000   0.0000   0.0000   0.0000   0.0000   0.0000
     0.0000

     the Fermi energy is    -1.7987 ev

!    total energy              =    -625.36977419 Ry
     Harris-Foulkes estimate   =    -625.36977475 Ry
     estimated scf accuracy    <       0.00000056 Ry

     The total energy is the sum of the following terms:

     one-electron contribution =   -3981.43732001 Ry
     hartree contribution      =    2027.19165709 Ry
     xc contribution           =    -235.49634865 Ry
     ewald contribution        =    1564.37223737 Ry
     smearing contrib. (-TS)   =       0.00000000 Ry

     convergence has been achieved in  11 iterations

     Writing output data file bridge.save/

     init_run     :    162.60s CPU    164.14s WALL (       1 calls)
     electrons    :   2975.23s CPU   2999.76s WALL (       1 calls)

     Called by init_run:
     wfcinit      :    128.52s CPU    129.21s WALL (       1 calls)
     wfcinit:atom :      0.15s CPU      0.27s WALL (       4 calls)
     wfcinit:wfcr :    127.35s CPU    127.80s WALL (       4 calls)
     potinit      :     16.88s CPU     17.39s WALL (       1 calls)
     hinit0       :     10.84s CPU     10.86s WALL (       1 calls)

     Called by electrons:
     c_bands      :   2465.20s CPU   2476.98s WALL (      11 calls)
     sum_band     :    344.67s CPU    348.79s WALL (      11 calls)
     v_of_rho     :    113.97s CPU    120.27s WALL (      12 calls)
     v_h          :      1.34s CPU      1.48s WALL (      12 calls)
     v_xc         :    112.63s CPU    118.79s WALL (      12 calls)
     newd         :     60.91s CPU     63.85s WALL (      12 calls)
     mix_rho      :      3.26s CPU      3.31s WALL (      11 calls)

     Called by c_bands:
     init_us_2    :      6.56s CPU      6.60s WALL (      92 calls)
     cegterg      :   2451.53s CPU   2463.26s WALL (      44 calls)

     Called by sum_band:
     sum_band:bec :      0.03s CPU      0.03s WALL (      44 calls)
     addusdens    :     85.63s CPU     88.28s WALL (      11 calls)

     Called by *egterg:
     h_psi        :   1340.42s CPU   1348.68s WALL (     267 calls)
     s_psi        :    428.82s CPU    429.03s WALL (     267 calls)
     g_psi        :      1.46s CPU      1.46s WALL (     219 calls)
     cdiaghg      :     20.18s CPU     20.18s WALL (     263 calls)
     cegterg:over :    323.54s CPU    323.66s WALL (     219 calls)
     cegterg:upda :    215.92s CPU    216.93s WALL (     219 calls)
     cegterg:last :    120.51s CPU    120.54s WALL (      44 calls)

     Called by h_psi:
     h_psi:pot    :   1338.77s CPU   1345.49s WALL (     267 calls)
     h_psi:calbec :    425.69s CPU    425.86s WALL (     267 calls)
     vloc_psi     :    484.39s CPU    490.79s WALL (     267 calls)
     add_vuspsi   :    428.68s CPU    428.83s WALL (     267 calls)

     General routines
     calbec       :    579.15s CPU    579.39s WALL (     311 calls)
     fft          :     65.46s CPU     67.82s WALL (     754 calls)
     ffts         :      0.73s CPU      0.75s WALL (      23 calls)
     fftw         :    489.74s CPU    496.47s WALL (   34854 calls)
     interpolate  :      1.64s CPU      1.69s WALL (      12 calls)

     Parallel routines
     fft_scatt_xy :    131.12s CPU    131.58s WALL (   35631 calls)
     fft_scatt_yz :    143.34s CPU    150.25s WALL (   35631 calls)

     PWSCF        :  52m18.75s CPU  52m45.62s WALL


   This run was terminated on:   9: 1:17  27Jun2022            

=------------------------------------------------------------------------------=
   JOB DONE.
=------------------------------------------------------------------------------=
