
     Program PWSCF v.6.4.1 starts on 17Mar2022 at 12:18:33 

     This program is part of the open-source Quantum ESPRESSO suite
     for quantum simulation of materials; please cite
         "P. Giannozzi et al., J. Phys.:Condens. Matter 21 395502 (2009);
         "P. Giannozzi et al., J. Phys.:Condens. Matter 29 465901 (2017);
          URL http://www.quantum-espresso.org", 
     in publications or presentations arising from this work. More details at
     http://www.quantum-espresso.org/quote

     Parallel version (MPI), running on     6 processors

     MPI processes distributed on     1 nodes
     R & G space division:  proc/nbgrp/npool/nimage =       6
     Reading input from mn-10.in

     Current dimensions of program PWSCF are:
     Max number of different atomic species (ntypx) = 10
     Max number of k-points (npk) =  40000
     Max angular momentum in pseudopotentials (lmaxx) =  3
               file Mn.pbe-spn-rrkjus_psl.0.3.1.UPF: wavefunction(s)  3D renormalized
               file Mn.pbe-spn-rrkjus_psl.0.3.1.UPF: wavefunction(s)  3D renormalized

     Subspace diagonalization in iterative solution of the eigenvalue problem:
     a serial algorithm will be used

     Message from routine setup:
     DEPRECATED: symmetry with ibrav=0, use correct ibrav instead

     Parallelization info
     --------------------
     sticks:   dense  smooth     PW     G-vecs:    dense   smooth      PW
     Min         147     147     46                 3387     3387     547
     Max         148     148     47                 3392     3392     548
     Sum         885     885    277                20341    20341    3287



     bravais-lattice index     =            0
     lattice parameter (alat)  =      16.8375  a.u.
     unit-cell volume          =    4773.4208 (a.u.)^3
     number of atoms/cell      =            2
     number of atomic types    =            2
     number of electrons       =        30.00
     number of Kohn-Sham states=           19
     kinetic-energy cutoff     =      10.0000  Ry
     charge density cutoff     =      40.0000  Ry
     convergence threshold     =      1.0E-06
     mixing beta               =       0.7000
     number of iterations used =            8  plain     mixing
     Exchange-correlation      = PBE ( 1  4  3  4 0 0)

     celldm(1)=  16.837460  celldm(2)=   0.000000  celldm(3)=   0.000000
     celldm(4)=   0.000000  celldm(5)=   0.000000  celldm(6)=   0.000000

     crystal axes: (cart. coord. in units of alat)
               a(1) = (   1.000000   0.000000   0.000000 )  
               a(2) = (   0.000000   1.000000   0.000000 )  
               a(3) = (   0.000000   0.000000   1.000000 )  

     reciprocal axes: (cart. coord. in units 2 pi/alat)
               b(1) = (  1.000000  0.000000  0.000000 )  
               b(2) = (  0.000000  1.000000  0.000000 )  
               b(3) = (  0.000000  0.000000  1.000000 )  


     PseudoPot. # 1 for Mn read from file:
     /home/cristian/Escritorio/Proyecto_Grafeno/pseudopotenciales/Mn.pbe-spn-rrkjus_psl.0.3.1.UPF
     MD5 check sum: e1cac159bdd2ba70c18e85765a5d4279
     Pseudo is Ultrasoft + core correction, Zval = 15.0
     Generated using "atomic" code by A. Dal Corso v.6.2.2
     Using radial grid of 1187 points,  6 beta functions with: 
                l(1) =   0
                l(2) =   0
                l(3) =   1
                l(4) =   1
                l(5) =   2
                l(6) =   2
     Q(r) pseudized with 0 coefficients 


     PseudoPot. # 2 for Mn read from file:
     /home/cristian/Escritorio/Proyecto_Grafeno/pseudopotenciales/Mn.pbe-spn-rrkjus_psl.0.3.1.UPF
     MD5 check sum: e1cac159bdd2ba70c18e85765a5d4279
     Pseudo is Ultrasoft + core correction, Zval = 15.0
     Generated using "atomic" code by A. Dal Corso v.6.2.2
     Using radial grid of 1187 points,  6 beta functions with: 
                l(1) =   0
                l(2) =   0
                l(3) =   1
                l(4) =   1
                l(5) =   2
                l(6) =   2
     Q(r) pseudized with 0 coefficients 


     atomic species   valence    mass     pseudopotential
        Mn1           15.00    54.93804     Mn( 1.00)
        Mn2           15.00    54.93804     Mn( 1.00)

     Starting magnetic structure 
     atomic species   magnetization
        Mn1          0.100
        Mn2         -0.100

     48 Sym. Ops., with inversion, found



   Cartesian axes

     site n.     atom                  positions (alat units)
         1           Mn1 tau(   1) = (   0.0000000   0.0000000   0.0000000  )
         2           Mn2 tau(   2) = (   0.5000000   0.5000000   0.5000000  )

     number of k points=    20  Methfessel-Paxton smearing, width (Ry)=  0.0300
                       cart. coord. in units 2pi/alat
        k(    1) = (   0.0625000   0.0625000   0.0625000), wk =   0.0156250
        k(    2) = (   0.0625000   0.0625000   0.1875000), wk =   0.0468750
        k(    3) = (   0.0625000   0.0625000   0.3125000), wk =   0.0468750
        k(    4) = (   0.0625000   0.0625000   0.4375000), wk =   0.0468750
        k(    5) = (   0.0625000   0.1875000   0.1875000), wk =   0.0468750
        k(    6) = (   0.0625000   0.1875000   0.3125000), wk =   0.0937500
        k(    7) = (   0.0625000   0.1875000   0.4375000), wk =   0.0937500
        k(    8) = (   0.0625000   0.3125000   0.3125000), wk =   0.0468750
        k(    9) = (   0.0625000   0.3125000   0.4375000), wk =   0.0937500
        k(   10) = (   0.0625000   0.4375000   0.4375000), wk =   0.0468750
        k(   11) = (   0.1875000   0.1875000   0.1875000), wk =   0.0156250
        k(   12) = (   0.1875000   0.1875000   0.3125000), wk =   0.0468750
        k(   13) = (   0.1875000   0.1875000   0.4375000), wk =   0.0468750
        k(   14) = (   0.1875000   0.3125000   0.3125000), wk =   0.0468750
        k(   15) = (   0.1875000   0.3125000   0.4375000), wk =   0.0937500
        k(   16) = (   0.1875000   0.4375000   0.4375000), wk =   0.0468750
        k(   17) = (   0.3125000   0.3125000   0.3125000), wk =   0.0156250
        k(   18) = (   0.3125000   0.3125000   0.4375000), wk =   0.0468750
        k(   19) = (   0.3125000   0.4375000   0.4375000), wk =   0.0468750
        k(   20) = (   0.4375000   0.4375000   0.4375000), wk =   0.0156250

     Dense  grid:    20341 G-vectors     FFT dimensions: (  36,  36,  36)

     Estimated max dynamical RAM per process >      21.09 MB

     Estimated total dynamical RAM >     126.56 MB
     Generating pointlists ...
     new r_m :   0.3572 (alat units)  6.0149 (a.u.) for type    1
     new r_m :   0.3572 (alat units)  6.0149 (a.u.) for type    2

     Check: negative core charge=   -0.002420

     Initial potential from superposition of free atoms

     starting charge   29.99900, renormalised to   30.00000

     negative rho (up, down):  1.067E+00 1.929E-02
     Starting wfcs are   20 randomized atomic wfcs

     total cpu time spent up to now is        2.0 secs

     Self-consistent Calculation

     iteration #  1     ecut=    10.00 Ry     beta= 0.70
     Davidson diagonalization with overlap
     ethr =  1.00E-02,  avg # of iterations =  9.9

     negative rho (up, down):  3.908E-03 3.164E-02

     total cpu time spent up to now is        5.5 secs

     total energy              =    -384.44129673 Ry
     Harris-Foulkes estimate   =    -418.10526380 Ry
     estimated scf accuracy    <      38.80558835 Ry

     total magnetization       =    -0.02 Bohr mag/cell
     absolute magnetization    =     0.50 Bohr mag/cell

     iteration #  2     ecut=    10.00 Ry     beta= 0.70
     Davidson diagonalization with overlap
     ethr =  1.00E-02,  avg # of iterations =  5.7

     negative rho (up, down):  2.521E-01 2.469E-02

     total cpu time spent up to now is        7.9 secs

     total energy              =    -396.39698825 Ry
     Harris-Foulkes estimate   =    -400.49839958 Ry
     estimated scf accuracy    <       6.95982103 Ry

     total magnetization       =     0.00 Bohr mag/cell
     absolute magnetization    =     4.56 Bohr mag/cell

     iteration #  3     ecut=    10.00 Ry     beta= 0.70
     Davidson diagonalization with overlap
     ethr =  1.00E-02,  avg # of iterations =  2.0

     negative rho (up, down):  6.001E-01 3.241E-02

     total cpu time spent up to now is        9.2 secs

     total energy              =    -395.63780077 Ry
     Harris-Foulkes estimate   =    -396.76065017 Ry
     estimated scf accuracy    <       1.69884072 Ry

     total magnetization       =    -1.61 Bohr mag/cell
     absolute magnetization    =     6.42 Bohr mag/cell

     iteration #  4     ecut=    10.00 Ry     beta= 0.70
     Davidson diagonalization with overlap
     ethr =  5.66E-03,  avg # of iterations =  5.6

     negative rho (up, down):  1.098E+00 3.678E-02

     total cpu time spent up to now is       11.0 secs

     total energy              =    -395.82934809 Ry
     Harris-Foulkes estimate   =    -401.36628586 Ry
     estimated scf accuracy    <      35.46279282 Ry

     total magnetization       =     3.39 Bohr mag/cell
     absolute magnetization    =     3.53 Bohr mag/cell

     iteration #  5     ecut=    10.00 Ry     beta= 0.70
     Davidson diagonalization with overlap
     ethr =  5.66E-03,  avg # of iterations =  2.0

     negative rho (up, down):  1.002E+00 4.360E-02

     total cpu time spent up to now is       12.3 secs

     total energy              =    -396.36990860 Ry
     Harris-Foulkes estimate   =    -396.67521578 Ry
     estimated scf accuracy    <       4.78963227 Ry

     total magnetization       =     5.48 Bohr mag/cell
     absolute magnetization    =    10.67 Bohr mag/cell

     iteration #  6     ecut=    10.00 Ry     beta= 0.70
     Davidson diagonalization with overlap
     ethr =  5.66E-03,  avg # of iterations =  1.0

     negative rho (up, down):  7.580E-01 7.335E-02

     total cpu time spent up to now is       13.4 secs

     total energy              =    -395.18212630 Ry
     Harris-Foulkes estimate   =    -396.40111430 Ry
     estimated scf accuracy    <       3.31470490 Ry

     total magnetization       =     4.64 Bohr mag/cell
     absolute magnetization    =    10.52 Bohr mag/cell

     iteration #  7     ecut=    10.00 Ry     beta= 0.70
     Davidson diagonalization with overlap
     ethr =  5.66E-03,  avg # of iterations =  3.8

     negative rho (up, down):  8.494E-01 6.897E-02

     total cpu time spent up to now is       14.9 secs

     total energy              =    -396.55603404 Ry
     Harris-Foulkes estimate   =    -396.69857725 Ry
     estimated scf accuracy    <       1.19549080 Ry

     total magnetization       =     3.44 Bohr mag/cell
     absolute magnetization    =     9.55 Bohr mag/cell

     iteration #  8     ecut=    10.00 Ry     beta= 0.70
     Davidson diagonalization with overlap
     ethr =  3.98E-03,  avg # of iterations =  4.0

     negative rho (up, down):  9.240E-01 6.061E-02

     total cpu time spent up to now is       16.4 secs

     total energy              =    -396.90257874 Ry
     Harris-Foulkes estimate   =    -397.61620474 Ry
     estimated scf accuracy    <       9.52335783 Ry

     total magnetization       =    -1.24 Bohr mag/cell
     absolute magnetization    =     8.47 Bohr mag/cell

     iteration #  9     ecut=    10.00 Ry     beta= 0.70
     Davidson diagonalization with overlap
     ethr =  3.98E-03,  avg # of iterations =  1.3

     negative rho (up, down):  9.205E-01 6.164E-02

     total cpu time spent up to now is       17.6 secs

     total energy              =    -397.09384386 Ry
     Harris-Foulkes estimate   =    -396.95174987 Ry
     estimated scf accuracy    <       8.76087202 Ry

     total magnetization       =    -1.54 Bohr mag/cell
     absolute magnetization    =     8.50 Bohr mag/cell

     iteration # 10     ecut=    10.00 Ry     beta= 0.70
     Davidson diagonalization with overlap
     ethr =  3.98E-03,  avg # of iterations =  1.4

     negative rho (up, down):  1.021E+00 5.328E-02

     total cpu time spent up to now is       18.7 secs

     total energy              =    -396.12801837 Ry
     Harris-Foulkes estimate   =    -397.13132891 Ry
     estimated scf accuracy    <       9.87615973 Ry

     total magnetization       =    -1.85 Bohr mag/cell
     absolute magnetization    =     8.49 Bohr mag/cell

     iteration # 11     ecut=    10.00 Ry     beta= 0.70
     Davidson diagonalization with overlap
     ethr =  3.98E-03,  avg # of iterations =  1.4

     negative rho (up, down):  9.739E-01 5.534E-02

     total cpu time spent up to now is       19.8 secs

     total energy              =    -396.60045395 Ry
     Harris-Foulkes estimate   =    -396.57941629 Ry
     estimated scf accuracy    <       1.31660003 Ry

     total magnetization       =     4.14 Bohr mag/cell
     absolute magnetization    =    11.67 Bohr mag/cell

     iteration # 12     ecut=    10.00 Ry     beta= 0.70
     Davidson diagonalization with overlap
     ethr =  3.98E-03,  avg # of iterations =  1.0

     negative rho (up, down):  9.795E-01 6.229E-02

     total cpu time spent up to now is       21.0 secs

     total energy              =    -396.48854873 Ry
     Harris-Foulkes estimate   =    -396.61111089 Ry
     estimated scf accuracy    <       1.06497357 Ry

     total magnetization       =     4.36 Bohr mag/cell
     absolute magnetization    =    12.60 Bohr mag/cell

     iteration # 13     ecut=    10.00 Ry     beta= 0.70
     Davidson diagonalization with overlap
     ethr =  3.55E-03,  avg # of iterations =  1.0

     negative rho (up, down):  9.803E-01 6.126E-02

     total cpu time spent up to now is       22.1 secs

     total energy              =    -396.60179388 Ry
     Harris-Foulkes estimate   =    -396.60917700 Ry
     estimated scf accuracy    <       2.29430004 Ry

     total magnetization       =    -1.91 Bohr mag/cell
     absolute magnetization    =    12.66 Bohr mag/cell

     iteration # 14     ecut=    10.00 Ry     beta= 0.70
     Davidson diagonalization with overlap
     ethr =  3.55E-03,  avg # of iterations =  1.0

     negative rho (up, down):  9.532E-01 6.229E-02

     total cpu time spent up to now is       23.3 secs

     total energy              =    -396.68675703 Ry
     Harris-Foulkes estimate   =    -396.60213652 Ry
     estimated scf accuracy    <       2.12633379 Ry

     total magnetization       =    -1.74 Bohr mag/cell
     absolute magnetization    =    12.67 Bohr mag/cell

     iteration # 15     ecut=    10.00 Ry     beta= 0.70
     Davidson diagonalization with overlap
     ethr =  3.55E-03,  avg # of iterations =  1.0

     negative rho (up, down):  8.976E-01 6.306E-02

     total cpu time spent up to now is       24.4 secs

     total energy              =    -396.80983650 Ry
     Harris-Foulkes estimate   =    -396.69265164 Ry
     estimated scf accuracy    <       2.42094465 Ry

     total magnetization       =    -1.88 Bohr mag/cell
     absolute magnetization    =    12.66 Bohr mag/cell

     iteration # 16     ecut=    10.00 Ry     beta= 0.70
     Davidson diagonalization with overlap
     ethr =  3.55E-03,  avg # of iterations =  1.2

     negative rho (up, down):  8.797E-01 6.254E-02

     total cpu time spent up to now is       25.5 secs

     total energy              =    -396.86799727 Ry
     Harris-Foulkes estimate   =    -396.84018413 Ry
     estimated scf accuracy    <       4.15721426 Ry

     total magnetization       =    -2.00 Bohr mag/cell
     absolute magnetization    =    11.70 Bohr mag/cell

     iteration # 17     ecut=    10.00 Ry     beta= 0.70
     Davidson diagonalization with overlap
     ethr =  3.55E-03,  avg # of iterations =  1.1

     negative rho (up, down):  8.013E-01 6.524E-02

     total cpu time spent up to now is       26.7 secs

     total energy              =    -396.71740309 Ry
     Harris-Foulkes estimate   =    -396.87393956 Ry
     estimated scf accuracy    <       4.35525062 Ry

     total magnetization       =    -2.06 Bohr mag/cell
     absolute magnetization    =    11.72 Bohr mag/cell

     iteration # 18     ecut=    10.00 Ry     beta= 0.70
     Davidson diagonalization with overlap
     ethr =  3.55E-03,  avg # of iterations =  1.0

     negative rho (up, down):  8.183E-01 6.010E-02

     total cpu time spent up to now is       27.8 secs

     total energy              =    -396.79683055 Ry
     Harris-Foulkes estimate   =    -396.75623267 Ry
     estimated scf accuracy    <       1.72786582 Ry

     total magnetization       =    -2.07 Bohr mag/cell
     absolute magnetization    =    14.28 Bohr mag/cell

     iteration # 19     ecut=    10.00 Ry     beta= 0.70
     Davidson diagonalization with overlap
     ethr =  3.55E-03,  avg # of iterations =  1.2

     negative rho (up, down):  7.668E-01 6.434E-02

     total cpu time spent up to now is       29.0 secs

     total energy              =    -397.10535806 Ry
     Harris-Foulkes estimate   =    -397.04366532 Ry
     estimated scf accuracy    <      10.27319332 Ry

     total magnetization       =    -2.22 Bohr mag/cell
     absolute magnetization    =     8.68 Bohr mag/cell

     iteration # 20     ecut=    10.00 Ry     beta= 0.70
     Davidson diagonalization with overlap
     ethr =  3.55E-03,  avg # of iterations =  1.3

     negative rho (up, down):  7.127E-01 6.709E-02

     total cpu time spent up to now is       30.1 secs

     total energy              =    -397.43135531 Ry
     Harris-Foulkes estimate   =    -397.13173432 Ry
     estimated scf accuracy    <      11.07052765 Ry

     total magnetization       =    -2.44 Bohr mag/cell
     absolute magnetization    =     8.67 Bohr mag/cell

     iteration # 21     ecut=    10.00 Ry     beta= 0.70
     Davidson diagonalization with overlap
     ethr =  3.55E-03,  avg # of iterations =  2.1

     negative rho (up, down):  1.076E+00 9.242E-02

     total cpu time spent up to now is       31.4 secs

     total energy              =    -395.33258835 Ry
     Harris-Foulkes estimate   =    -397.64372081 Ry
     estimated scf accuracy    <      17.69326915 Ry

     total magnetization       =    -3.34 Bohr mag/cell
     absolute magnetization    =     7.59 Bohr mag/cell

     iteration # 22     ecut=    10.00 Ry     beta= 0.70
     Davidson diagonalization with overlap
     ethr =  3.55E-03,  avg # of iterations =  3.0

     negative rho (up, down):  1.031E+00 6.679E-02

     total cpu time spent up to now is       32.8 secs

     total energy              =    -396.45569475 Ry
     Harris-Foulkes estimate   =    -396.65865029 Ry
     estimated scf accuracy    <       3.31340830 Ry

     total magnetization       =     4.50 Bohr mag/cell
     absolute magnetization    =    10.49 Bohr mag/cell

     iteration # 23     ecut=    10.00 Ry     beta= 0.70
     Davidson diagonalization with overlap
     ethr =  3.55E-03,  avg # of iterations =  1.0

     negative rho (up, down):  1.041E+00 7.090E-02

     total cpu time spent up to now is       34.0 secs

     total energy              =    -396.52685919 Ry
     Harris-Foulkes estimate   =    -396.54163845 Ry
     estimated scf accuracy    <       0.08523252 Ry

     total magnetization       =     2.31 Bohr mag/cell
     absolute magnetization    =    12.71 Bohr mag/cell

     iteration # 24     ecut=    10.00 Ry     beta= 0.70
     Davidson diagonalization with overlap
     ethr =  2.84E-04,  avg # of iterations =  2.2

     negative rho (up, down):  1.030E+00 7.210E-02

     total cpu time spent up to now is       35.3 secs

     total energy              =    -396.53001875 Ry
     Harris-Foulkes estimate   =    -396.53198900 Ry
     estimated scf accuracy    <       0.08736626 Ry

     total magnetization       =     2.56 Bohr mag/cell
     absolute magnetization    =    12.73 Bohr mag/cell

     iteration # 25     ecut=    10.00 Ry     beta= 0.70
     Davidson diagonalization with overlap
     ethr =  2.84E-04,  avg # of iterations =  1.0

     negative rho (up, down):  9.882E-01 7.159E-02

     total cpu time spent up to now is       36.5 secs

     total energy              =    -396.54915063 Ry
     Harris-Foulkes estimate   =    -396.53096213 Ry
     estimated scf accuracy    <       0.20793960 Ry

     total magnetization       =     3.14 Bohr mag/cell
     absolute magnetization    =    12.73 Bohr mag/cell

     iteration # 26     ecut=    10.00 Ry     beta= 0.70
     Davidson diagonalization with overlap
     ethr =  2.84E-04,  avg # of iterations =  1.1

     negative rho (up, down):  9.953E-01 6.850E-02

     total cpu time spent up to now is       37.6 secs

     total energy              =    -396.55406588 Ry
     Harris-Foulkes estimate   =    -396.55441146 Ry
     estimated scf accuracy    <       0.63034006 Ry

     total magnetization       =     4.07 Bohr mag/cell
     absolute magnetization    =    12.81 Bohr mag/cell

     iteration # 27     ecut=    10.00 Ry     beta= 0.70
     Davidson diagonalization with overlap
     ethr =  2.84E-04,  avg # of iterations =  1.0

     negative rho (up, down):  1.033E+00 7.532E-02

     total cpu time spent up to now is       38.8 secs

     total energy              =    -396.45121296 Ry
     Harris-Foulkes estimate   =    -396.55433657 Ry
     estimated scf accuracy    <       0.70226942 Ry

     total magnetization       =     4.20 Bohr mag/cell
     absolute magnetization    =    12.83 Bohr mag/cell

     iteration # 28     ecut=    10.00 Ry     beta= 0.70
     Davidson diagonalization with overlap
     ethr =  2.84E-04,  avg # of iterations =  1.1

     negative rho (up, down):  1.019E+00 7.039E-02

     total cpu time spent up to now is       39.9 secs

     total energy              =    -396.61032180 Ry
     Harris-Foulkes estimate   =    -396.54741396 Ry
     estimated scf accuracy    <       4.09571641 Ry

     total magnetization       =    -3.29 Bohr mag/cell
     absolute magnetization    =    12.69 Bohr mag/cell

     iteration # 29     ecut=    10.00 Ry     beta= 0.70
     Davidson diagonalization with overlap
     ethr =  2.84E-04,  avg # of iterations =  1.0

     negative rho (up, down):  1.060E+00 7.939E-02

     total cpu time spent up to now is       41.0 secs

     total energy              =    -396.57512007 Ry
     Harris-Foulkes estimate   =    -396.61916140 Ry
     estimated scf accuracy    <       5.88660542 Ry

     total magnetization       =    -4.34 Bohr mag/cell
     absolute magnetization    =    12.75 Bohr mag/cell

     iteration # 30     ecut=    10.00 Ry     beta= 0.70
     Davidson diagonalization with overlap
     ethr =  2.84E-04,  avg # of iterations =  2.0

     negative rho (up, down):  1.066E+00 9.281E-02

     total cpu time spent up to now is       42.3 secs

     total energy              =    -396.32790128 Ry
     Harris-Foulkes estimate   =    -396.57834372 Ry
     estimated scf accuracy    <       5.32082826 Ry

     total magnetization       =    -4.09 Bohr mag/cell
     absolute magnetization    =    12.68 Bohr mag/cell

     iteration # 31     ecut=    10.00 Ry     beta= 0.70
     Davidson diagonalization with overlap
     ethr =  2.84E-04,  avg # of iterations =  3.4

     negative rho (up, down):  1.088E+00 1.039E-01

     total cpu time spent up to now is       43.7 secs

     total energy              =    -396.56334011 Ry
     Harris-Foulkes estimate   =    -396.63003120 Ry
     estimated scf accuracy    <       2.47961620 Ry

     total magnetization       =     4.10 Bohr mag/cell
     absolute magnetization    =    14.35 Bohr mag/cell

     iteration # 32     ecut=    10.00 Ry     beta= 0.70
     Davidson diagonalization with overlap
     ethr =  2.84E-04,  avg # of iterations =  2.0

     negative rho (up, down):  1.112E+00 1.032E-01

     total cpu time spent up to now is       44.9 secs

     total energy              =    -396.74495623 Ry
     Harris-Foulkes estimate   =    -396.57257266 Ry
     estimated scf accuracy    <       2.35612495 Ry

     total magnetization       =     3.96 Bohr mag/cell
     absolute magnetization    =    14.54 Bohr mag/cell

     iteration # 33     ecut=    10.00 Ry     beta= 0.70
     Davidson diagonalization with overlap
     ethr =  2.84E-04,  avg # of iterations =  2.1

     negative rho (up, down):  1.123E+00 1.059E-01

     total cpu time spent up to now is       46.2 secs

     total energy              =    -396.79368903 Ry
     Harris-Foulkes estimate   =    -396.78754803 Ry
     estimated scf accuracy    <       5.27210209 Ry

     total magnetization       =     3.82 Bohr mag/cell
     absolute magnetization    =    12.40 Bohr mag/cell

     iteration # 34     ecut=    10.00 Ry     beta= 0.70
     Davidson diagonalization with overlap
     ethr =  2.84E-04,  avg # of iterations =  1.0

     negative rho (up, down):  1.124E+00 8.621E-02

     total cpu time spent up to now is       47.3 secs

     total energy              =    -396.99255478 Ry
     Harris-Foulkes estimate   =    -396.79420649 Ry
     estimated scf accuracy    <       5.39413753 Ry

     total magnetization       =     3.81 Bohr mag/cell
     absolute magnetization    =    12.40 Bohr mag/cell

     iteration # 35     ecut=    10.00 Ry     beta= 0.70
     Davidson diagonalization with overlap
     ethr =  2.84E-04,  avg # of iterations =  2.5

     negative rho (up, down):  1.106E+00 7.797E-02

     total cpu time spent up to now is       48.8 secs

     total energy              =    -397.16095270 Ry
     Harris-Foulkes estimate   =    -397.01556548 Ry
     estimated scf accuracy    <       5.89886921 Ry

     total magnetization       =     4.75 Bohr mag/cell
     absolute magnetization    =    11.70 Bohr mag/cell

     iteration # 36     ecut=    10.00 Ry     beta= 0.70
     Davidson diagonalization with overlap
     ethr =  2.84E-04,  avg # of iterations =  2.4

     negative rho (up, down):  1.098E+00 7.172E-02

     total cpu time spent up to now is       50.0 secs

     total energy              =    -397.01849182 Ry
     Harris-Foulkes estimate   =    -397.19085319 Ry
     estimated scf accuracy    <       7.13832105 Ry

     total magnetization       =     5.85 Bohr mag/cell
     absolute magnetization    =    10.29 Bohr mag/cell

     iteration # 37     ecut=    10.00 Ry     beta= 0.70
     Davidson diagonalization with overlap
     ethr =  2.84E-04,  avg # of iterations =  1.6

     negative rho (up, down):  1.124E+00 6.464E-02

     total cpu time spent up to now is       51.1 secs

     total energy              =    -397.01848316 Ry
     Harris-Foulkes estimate   =    -397.02842337 Ry
     estimated scf accuracy    <       5.74498322 Ry

     total magnetization       =     5.86 Bohr mag/cell
     absolute magnetization    =    10.78 Bohr mag/cell

     iteration # 38     ecut=    10.00 Ry     beta= 0.70
     Davidson diagonalization with overlap
     ethr =  2.84E-04,  avg # of iterations =  2.0

     negative rho (up, down):  1.103E+00 5.847E-02

     total cpu time spent up to now is       52.4 secs

     total energy              =    -397.07177108 Ry
     Harris-Foulkes estimate   =    -397.06245722 Ry
     estimated scf accuracy    <       5.86970761 Ry

     total magnetization       =     5.82 Bohr mag/cell
     absolute magnetization    =    10.69 Bohr mag/cell

     iteration # 39     ecut=    10.00 Ry     beta= 0.70
     Davidson diagonalization with overlap
     ethr =  2.84E-04,  avg # of iterations =  1.0

     negative rho (up, down):  1.333E+00 1.463E-01

     total cpu time spent up to now is       53.5 secs

     total energy              =    -395.46952115 Ry
     Harris-Foulkes estimate   =    -397.07290144 Ry
     estimated scf accuracy    <       5.41189231 Ry

     total magnetization       =     5.84 Bohr mag/cell
     absolute magnetization    =    10.95 Bohr mag/cell

     iteration # 40     ecut=    10.00 Ry     beta= 0.70
     Davidson diagonalization with overlap
     ethr =  2.84E-04,  avg # of iterations =  4.0

     negative rho (up, down):  1.079E+00 1.265E-01

     total cpu time spent up to now is       55.2 secs

     total energy              =    -395.72237355 Ry
     Harris-Foulkes estimate   =    -395.69187759 Ry
     estimated scf accuracy    <       1.90909293 Ry

     total magnetization       =     7.63 Bohr mag/cell
     absolute magnetization    =    11.56 Bohr mag/cell

     iteration # 41     ecut=    10.00 Ry     beta= 0.70
     Davidson diagonalization with overlap
     ethr =  2.84E-04,  avg # of iterations =  2.4

     negative rho (up, down):  1.043E+00 8.372E-02

     total cpu time spent up to now is       56.7 secs

     total energy              =    -396.22909033 Ry
     Harris-Foulkes estimate   =    -396.02900373 Ry
     estimated scf accuracy    <       2.68508192 Ry

     total magnetization       =    -1.60 Bohr mag/cell
     absolute magnetization    =    12.54 Bohr mag/cell

     iteration # 42     ecut=    10.00 Ry     beta= 0.70
     Davidson diagonalization with overlap
     ethr =  2.84E-04,  avg # of iterations =  2.9

     negative rho (up, down):  1.032E+00 9.761E-02

     total cpu time spent up to now is       58.2 secs

     total energy              =    -396.32421562 Ry
     Harris-Foulkes estimate   =    -396.54812422 Ry
     estimated scf accuracy    <       2.36701519 Ry

     total magnetization       =     5.96 Bohr mag/cell
     absolute magnetization    =    12.91 Bohr mag/cell

     iteration # 43     ecut=    10.00 Ry     beta= 0.70
     Davidson diagonalization with overlap
     ethr =  2.84E-04,  avg # of iterations =  1.6

     negative rho (up, down):  1.061E+00 1.015E-01

     total cpu time spent up to now is       59.4 secs

     total energy              =    -396.42694016 Ry
     Harris-Foulkes estimate   =    -396.35355594 Ry
     estimated scf accuracy    <       0.12991464 Ry

     total magnetization       =     2.55 Bohr mag/cell
     absolute magnetization    =    12.85 Bohr mag/cell

     iteration # 44     ecut=    10.00 Ry     beta= 0.70
     Davidson diagonalization with overlap
     ethr =  2.84E-04,  avg # of iterations =  2.5

     negative rho (up, down):  1.059E+00 1.061E-01

     total cpu time spent up to now is       60.7 secs

     total energy              =    -396.47775853 Ry
     Harris-Foulkes estimate   =    -396.51301400 Ry
     estimated scf accuracy    <       1.10613209 Ry

     total magnetization       =    -2.63 Bohr mag/cell
     absolute magnetization    =    14.54 Bohr mag/cell

     iteration # 45     ecut=    10.00 Ry     beta= 0.70
     Davidson diagonalization with overlap
     ethr =  2.84E-04,  avg # of iterations =  1.0

     negative rho (up, down):  1.058E+00 1.061E-01

     total cpu time spent up to now is       61.8 secs

     total energy              =    -396.49593526 Ry
     Harris-Foulkes estimate   =    -396.51077838 Ry
     estimated scf accuracy    <       0.31122016 Ry

     total magnetization       =     1.41 Bohr mag/cell
     absolute magnetization    =    14.67 Bohr mag/cell

     iteration # 46     ecut=    10.00 Ry     beta= 0.70
     Davidson diagonalization with overlap
     ethr =  2.84E-04,  avg # of iterations =  1.0

     negative rho (up, down):  1.036E+00 1.111E-01

     total cpu time spent up to now is       62.9 secs

     total energy              =    -396.41194196 Ry
     Harris-Foulkes estimate   =    -396.49678525 Ry
     estimated scf accuracy    <       0.10694838 Ry

     total magnetization       =     0.80 Bohr mag/cell
     absolute magnetization    =    14.64 Bohr mag/cell

     iteration # 47     ecut=    10.00 Ry     beta= 0.70
     Davidson diagonalization with overlap
     ethr =  2.84E-04,  avg # of iterations =  1.5

     negative rho (up, down):  1.027E+00 1.262E-01

     total cpu time spent up to now is       64.1 secs

     total energy              =    -396.28977492 Ry
     Harris-Foulkes estimate   =    -396.43923799 Ry
     estimated scf accuracy    <       0.37747449 Ry

     total magnetization       =     1.56 Bohr mag/cell
     absolute magnetization    =    14.65 Bohr mag/cell

     iteration # 48     ecut=    10.00 Ry     beta= 0.70
     Davidson diagonalization with overlap
     ethr =  2.84E-04,  avg # of iterations =  1.4

     negative rho (up, down):  1.036E+00 1.102E-01

     total cpu time spent up to now is       65.3 secs

     total energy              =    -396.43736775 Ry
     Harris-Foulkes estimate   =    -396.33791730 Ry
     estimated scf accuracy    <       0.15467738 Ry

     total magnetization       =    -0.38 Bohr mag/cell
     absolute magnetization    =    13.99 Bohr mag/cell

     iteration # 49     ecut=    10.00 Ry     beta= 0.70
     Davidson diagonalization with overlap
     ethr =  2.84E-04,  avg # of iterations =  1.4

     negative rho (up, down):  1.016E+00 1.114E-01

     total cpu time spent up to now is       66.5 secs

     total energy              =    -396.43014149 Ry
     Harris-Foulkes estimate   =    -396.44248604 Ry
     estimated scf accuracy    <       0.04490835 Ry

     total magnetization       =    -0.55 Bohr mag/cell
     absolute magnetization    =    14.54 Bohr mag/cell

     iteration # 50     ecut=    10.00 Ry     beta= 0.70
     Davidson diagonalization with overlap
     ethr =  1.50E-04,  avg # of iterations =  1.1

     negative rho (up, down):  1.009E+00 1.114E-01

     total cpu time spent up to now is       67.7 secs

     total energy              =    -396.43156755 Ry
     Harris-Foulkes estimate   =    -396.43144295 Ry
     estimated scf accuracy    <       0.00581009 Ry

     total magnetization       =    -0.17 Bohr mag/cell
     absolute magnetization    =    14.56 Bohr mag/cell

     iteration # 51     ecut=    10.00 Ry     beta= 0.70
     Davidson diagonalization with overlap
     ethr =  1.94E-05,  avg # of iterations =  1.9

     negative rho (up, down):  1.011E+00 1.136E-01

     total cpu time spent up to now is       68.9 secs

     total energy              =    -396.41233486 Ry
     Harris-Foulkes estimate   =    -396.43359520 Ry
     estimated scf accuracy    <       0.09630541 Ry

     total magnetization       =    -0.76 Bohr mag/cell
     absolute magnetization    =    14.56 Bohr mag/cell

     iteration # 52     ecut=    10.00 Ry     beta= 0.70
     Davidson diagonalization with overlap
     ethr =  1.94E-05,  avg # of iterations =  2.4

     negative rho (up, down):  1.025E+00 1.177E-01

     total cpu time spent up to now is       70.3 secs

     total energy              =    -396.41143120 Ry
     Harris-Foulkes estimate   =    -396.47638278 Ry
     estimated scf accuracy    <       2.85311738 Ry

     total magnetization       =    -4.16 Bohr mag/cell
     absolute magnetization    =    14.73 Bohr mag/cell

     iteration # 53     ecut=    10.00 Ry     beta= 0.70
     Davidson diagonalization with overlap
     ethr =  1.94E-05,  avg # of iterations =  1.5

     negative rho (up, down):  1.006E+00 1.146E-01

     total cpu time spent up to now is       71.6 secs

     total energy              =    -396.42399710 Ry
     Harris-Foulkes estimate   =    -396.42306117 Ry
     estimated scf accuracy    <       1.10275537 Ry

     total magnetization       =    -2.66 Bohr mag/cell
     absolute magnetization    =    14.63 Bohr mag/cell

     iteration # 54     ecut=    10.00 Ry     beta= 0.70
     Davidson diagonalization with overlap
     ethr =  1.94E-05,  avg # of iterations =  1.5

     negative rho (up, down):  1.017E+00 1.151E-01

     total cpu time spent up to now is       72.9 secs

     total energy              =    -396.38207641 Ry
     Harris-Foulkes estimate   =    -396.42547408 Ry
     estimated scf accuracy    <       0.70453617 Ry

     total magnetization       =    -2.07 Bohr mag/cell
     absolute magnetization    =    14.60 Bohr mag/cell

     iteration # 55     ecut=    10.00 Ry     beta= 0.70
     Davidson diagonalization with overlap
     ethr =  1.94E-05,  avg # of iterations =  1.8

     negative rho (up, down):  1.033E+00 1.162E-01

     total cpu time spent up to now is       74.3 secs

     total energy              =    -396.39819533 Ry
     Harris-Foulkes estimate   =    -396.40342098 Ry
     estimated scf accuracy    <       0.00329885 Ry

     total magnetization       =    -0.13 Bohr mag/cell
     absolute magnetization    =    14.54 Bohr mag/cell

     iteration # 56     ecut=    10.00 Ry     beta= 0.70
     Davidson diagonalization with overlap
     ethr =  1.10E-05,  avg # of iterations =  2.3

     negative rho (up, down):  1.036E+00 1.177E-01

     total cpu time spent up to now is       75.6 secs

     total energy              =    -396.39899314 Ry
     Harris-Foulkes estimate   =    -396.40026217 Ry
     estimated scf accuracy    <       0.04841465 Ry

     total magnetization       =     0.56 Bohr mag/cell
     absolute magnetization    =    14.54 Bohr mag/cell

     iteration # 57     ecut=    10.00 Ry     beta= 0.70
     Davidson diagonalization with overlap
     ethr =  1.10E-05,  avg # of iterations =  1.5

     negative rho (up, down):  1.039E+00 1.187E-01

     total cpu time spent up to now is       76.8 secs

     total energy              =    -396.39879787 Ry
     Harris-Foulkes estimate   =    -396.39980376 Ry
     estimated scf accuracy    <       0.01593474 Ry

     total magnetization       =     0.31 Bohr mag/cell
     absolute magnetization    =    14.53 Bohr mag/cell

     iteration # 58     ecut=    10.00 Ry     beta= 0.70
     Davidson diagonalization with overlap
     ethr =  1.10E-05,  avg # of iterations =  1.0

     negative rho (up, down):  1.040E+00 1.187E-01

     total cpu time spent up to now is       78.0 secs

     total energy              =    -396.39940757 Ry
     Harris-Foulkes estimate   =    -396.39900262 Ry
     estimated scf accuracy    <       0.02381680 Ry

     total magnetization       =     0.38 Bohr mag/cell
     absolute magnetization    =    14.53 Bohr mag/cell

     iteration # 59     ecut=    10.00 Ry     beta= 0.70
     Davidson diagonalization with overlap
     ethr =  1.10E-05,  avg # of iterations =  1.0

     negative rho (up, down):  1.039E+00 1.177E-01

     total cpu time spent up to now is       79.2 secs

     total energy              =    -396.39931337 Ry
     Harris-Foulkes estimate   =    -396.39947012 Ry
     estimated scf accuracy    <       0.04282506 Ry

     total magnetization       =     0.51 Bohr mag/cell
     absolute magnetization    =    14.53 Bohr mag/cell

     iteration # 60     ecut=    10.00 Ry     beta= 0.70
     Davidson diagonalization with overlap
     ethr =  1.10E-05,  avg # of iterations =  1.0

     negative rho (up, down):  1.031E+00 1.167E-01

     total cpu time spent up to now is       80.4 secs

     total energy              =    -396.39939460 Ry
     Harris-Foulkes estimate   =    -396.39940344 Ry
     estimated scf accuracy    <       0.03786917 Ry

     total magnetization       =     0.48 Bohr mag/cell
     absolute magnetization    =    14.53 Bohr mag/cell

     iteration # 61     ecut=    10.00 Ry     beta= 0.70
     Davidson diagonalization with overlap
     ethr =  1.10E-05,  avg # of iterations =  1.5

     negative rho (up, down):  1.041E+00 1.177E-01

     total cpu time spent up to now is       81.7 secs

     total energy              =    -396.39611801 Ry
     Harris-Foulkes estimate   =    -396.40555849 Ry
     estimated scf accuracy    <       0.16593053 Ry

     total magnetization       =    -1.04 Bohr mag/cell
     absolute magnetization    =    14.54 Bohr mag/cell

     iteration # 62     ecut=    10.00 Ry     beta= 0.70
     Davidson diagonalization with overlap
     ethr =  1.10E-05,  avg # of iterations =  1.5

     negative rho (up, down):  1.042E+00 1.177E-01

     total cpu time spent up to now is       82.9 secs

     total energy              =    -396.39889204 Ry
     Harris-Foulkes estimate   =    -396.39889246 Ry
     estimated scf accuracy    <       0.00572158 Ry

     total magnetization       =    -0.19 Bohr mag/cell
     absolute magnetization    =    14.53 Bohr mag/cell

     iteration # 63     ecut=    10.00 Ry     beta= 0.70
     Davidson diagonalization with overlap
     ethr =  1.10E-05,  avg # of iterations =  1.5

     negative rho (up, down):  1.042E+00 1.167E-01

     total cpu time spent up to now is       84.2 secs

     total energy              =    -396.40226448 Ry
     Harris-Foulkes estimate   =    -396.40376150 Ry
     estimated scf accuracy    <       0.01694413 Ry

     total magnetization       =     0.32 Bohr mag/cell
     absolute magnetization    =    14.52 Bohr mag/cell

     iteration # 64     ecut=    10.00 Ry     beta= 0.70
     Davidson diagonalization with overlap
     ethr =  1.10E-05,  avg # of iterations =  1.5

     negative rho (up, down):  1.038E+00 1.157E-01

     total cpu time spent up to now is       85.5 secs

     total energy              =    -396.39835124 Ry
     Harris-Foulkes estimate   =    -396.40647775 Ry
     estimated scf accuracy    <       0.26400990 Ry

     total magnetization       =     1.31 Bohr mag/cell
     absolute magnetization    =    14.54 Bohr mag/cell

     iteration # 65     ecut=    10.00 Ry     beta= 0.70
     Davidson diagonalization with overlap
     ethr =  1.10E-05,  avg # of iterations =  1.0

     negative rho (up, down):  1.034E+00 1.167E-01

     total cpu time spent up to now is       86.7 secs

     total energy              =    -396.40106539 Ry
     Harris-Foulkes estimate   =    -396.40111223 Ry
     estimated scf accuracy    <       0.00067143 Ry

     total magnetization       =     0.06 Bohr mag/cell
     absolute magnetization    =    14.53 Bohr mag/cell

     iteration # 66     ecut=    10.00 Ry     beta= 0.70
     Davidson diagonalization with overlap
     ethr =  2.24E-06,  avg # of iterations =  2.2

     negative rho (up, down):  1.037E+00 1.167E-01

     total cpu time spent up to now is       88.1 secs

     total energy              =    -396.39986535 Ry
     Harris-Foulkes estimate   =    -396.40327855 Ry
     estimated scf accuracy    <       0.13257397 Ry

     total magnetization       =    -0.92 Bohr mag/cell
     absolute magnetization    =    14.54 Bohr mag/cell

     iteration # 67     ecut=    10.00 Ry     beta= 0.70
     Davidson diagonalization with overlap
     ethr =  2.24E-06,  avg # of iterations =  1.5

     negative rho (up, down):  1.036E+00 1.177E-01

     total cpu time spent up to now is       89.5 secs

     total energy              =    -396.40235529 Ry
     Harris-Foulkes estimate   =    -396.40138218 Ry
     estimated scf accuracy    <       0.00829129 Ry

     total magnetization       =    -0.22 Bohr mag/cell
     absolute magnetization    =    14.53 Bohr mag/cell

     iteration # 68     ecut=    10.00 Ry     beta= 0.70
     Davidson diagonalization with overlap
     ethr =  2.24E-06,  avg # of iterations =  1.5

     negative rho (up, down):  1.036E+00 1.167E-01

     total cpu time spent up to now is       90.7 secs

     total energy              =    -396.40277513 Ry
     Harris-Foulkes estimate   =    -396.40292189 Ry
     estimated scf accuracy    <       0.06084126 Ry

     total magnetization       =    -0.62 Bohr mag/cell
     absolute magnetization    =    14.53 Bohr mag/cell

     iteration # 69     ecut=    10.00 Ry     beta= 0.70
     Davidson diagonalization with overlap
     ethr =  2.24E-06,  avg # of iterations =  1.0

     negative rho (up, down):  1.035E+00 1.167E-01

     total cpu time spent up to now is       91.9 secs

     total energy              =    -396.39791620 Ry
     Harris-Foulkes estimate   =    -396.40279516 Ry
     estimated scf accuracy    <       0.05279115 Ry

     total magnetization       =    -0.58 Bohr mag/cell
     absolute magnetization    =    14.53 Bohr mag/cell

     iteration # 70     ecut=    10.00 Ry     beta= 0.70
     Davidson diagonalization with overlap
     ethr =  2.24E-06,  avg # of iterations =  2.5

     negative rho (up, down):  1.034E+00 1.167E-01

     total cpu time spent up to now is       93.4 secs

     total energy              =    -396.40238868 Ry
     Harris-Foulkes estimate   =    -396.40374155 Ry
     estimated scf accuracy    <       0.11998961 Ry

     total magnetization       =    -0.88 Bohr mag/cell
     absolute magnetization    =    14.53 Bohr mag/cell

     iteration # 71     ecut=    10.00 Ry     beta= 0.70
     Davidson diagonalization with overlap
     ethr =  2.24E-06,  avg # of iterations =  1.5

     negative rho (up, down):  1.035E+00 1.167E-01

     total cpu time spent up to now is       94.7 secs

     total energy              =    -396.40316307 Ry
     Harris-Foulkes estimate   =    -396.40344789 Ry
     estimated scf accuracy    <       0.02579128 Ry

     total magnetization       =    -0.41 Bohr mag/cell
     absolute magnetization    =    14.53 Bohr mag/cell

     iteration # 72     ecut=    10.00 Ry     beta= 0.70
     Davidson diagonalization with overlap
     ethr =  2.24E-06,  avg # of iterations =  1.0

     negative rho (up, down):  1.038E+00 1.177E-01

     total cpu time spent up to now is       95.8 secs

     total energy              =    -396.40373448 Ry
     Harris-Foulkes estimate   =    -396.40362795 Ry
     estimated scf accuracy    <       0.00136445 Ry

     total magnetization       =     0.08 Bohr mag/cell
     absolute magnetization    =    14.53 Bohr mag/cell

     iteration # 73     ecut=    10.00 Ry     beta= 0.70
     Davidson diagonalization with overlap
     ethr =  2.24E-06,  avg # of iterations =  1.0

     negative rho (up, down):  1.056E+00 1.193E-01

     total cpu time spent up to now is       97.0 secs

     total energy              =    -396.39380332 Ry
     Harris-Foulkes estimate   =    -396.40410481 Ry
     estimated scf accuracy    <       0.03113784 Ry

     total magnetization       =     0.45 Bohr mag/cell
     absolute magnetization    =    14.53 Bohr mag/cell

     iteration # 74     ecut=    10.00 Ry     beta= 0.70
     Davidson diagonalization with overlap
     ethr =  2.24E-06,  avg # of iterations =  3.3

     negative rho (up, down):  1.045E+00 1.167E-01

     total cpu time spent up to now is       98.6 secs

     total energy              =    -396.40262392 Ry
     Harris-Foulkes estimate   =    -396.41653655 Ry
     estimated scf accuracy    <       1.04111599 Ry

     total magnetization       =     2.57 Bohr mag/cell
     absolute magnetization    =    14.59 Bohr mag/cell

     iteration # 75     ecut=    10.00 Ry     beta= 0.70
     Davidson diagonalization with overlap
     ethr =  2.24E-06,  avg # of iterations =  2.1

     negative rho (up, down):  1.040E+00 1.167E-01

     total cpu time spent up to now is       99.9 secs

     total energy              =    -396.40250631 Ry
     Harris-Foulkes estimate   =    -396.40563795 Ry
     estimated scf accuracy    <       0.34354658 Ry

     total magnetization       =     1.49 Bohr mag/cell
     absolute magnetization    =    14.55 Bohr mag/cell

     iteration # 76     ecut=    10.00 Ry     beta= 0.70
     Davidson diagonalization with overlap
     ethr =  2.24E-06,  avg # of iterations =  1.5

     negative rho (up, down):  1.038E+00 1.177E-01

     total cpu time spent up to now is      101.1 secs

     total energy              =    -396.39584157 Ry
     Harris-Foulkes estimate   =    -396.40309699 Ry
     estimated scf accuracy    <       0.14581145 Ry

     total magnetization       =     0.98 Bohr mag/cell
     absolute magnetization    =    14.54 Bohr mag/cell

     iteration # 77     ecut=    10.00 Ry     beta= 0.70
     Davidson diagonalization with overlap
     ethr =  2.24E-06,  avg # of iterations =  2.5

     negative rho (up, down):  1.034E+00 1.157E-01

     total cpu time spent up to now is      102.7 secs

     total energy              =    -396.39968371 Ry
     Harris-Foulkes estimate   =    -396.40381295 Ry
     estimated scf accuracy    <       0.04017492 Ry

     total magnetization       =     0.51 Bohr mag/cell
     absolute magnetization    =    14.53 Bohr mag/cell

     iteration # 78     ecut=    10.00 Ry     beta= 0.70
     Davidson diagonalization with overlap
     ethr =  2.24E-06,  avg # of iterations =  2.1

     negative rho (up, down):  1.040E+00 1.187E-01

     total cpu time spent up to now is      104.0 secs

     total energy              =    -396.34775480 Ry
     Harris-Foulkes estimate   =    -396.40168070 Ry
     estimated scf accuracy    <       0.00019970 Ry

     total magnetization       =     0.04 Bohr mag/cell
     absolute magnetization    =    14.53 Bohr mag/cell

     iteration # 79     ecut=    10.00 Ry     beta= 0.70
     Davidson diagonalization with overlap
     ethr =  6.66E-07,  avg # of iterations =  4.5

     negative rho (up, down):  1.039E+00 1.177E-01

     total cpu time spent up to now is      106.0 secs

     total energy              =    -396.40646169 Ry
     Harris-Foulkes estimate   =    -396.40719455 Ry
     estimated scf accuracy    <       0.42234361 Ry

     total magnetization       =     1.68 Bohr mag/cell
     absolute magnetization    =    14.58 Bohr mag/cell

     iteration # 80     ecut=    10.00 Ry     beta= 0.70
     Davidson diagonalization with overlap
     ethr =  6.66E-07,  avg # of iterations =  1.5

     negative rho (up, down):  1.039E+00 1.187E-01

     total cpu time spent up to now is      107.2 secs

     total energy              =    -396.40665470 Ry
     Harris-Foulkes estimate   =    -396.40648510 Ry
     estimated scf accuracy    <       0.38820395 Ry

     total magnetization       =     1.61 Bohr mag/cell
     absolute magnetization    =    14.58 Bohr mag/cell

     iteration # 81     ecut=    10.00 Ry     beta= 0.70
     Davidson diagonalization with overlap
     ethr =  6.66E-07,  avg # of iterations =  1.5

     negative rho (up, down):  1.041E+00 1.187E-01

     total cpu time spent up to now is      108.5 secs

     total energy              =    -396.40944402 Ry
     Harris-Foulkes estimate   =    -396.40666865 Ry
     estimated scf accuracy    <       0.39258837 Ry

     total magnetization       =     1.62 Bohr mag/cell
     absolute magnetization    =    14.58 Bohr mag/cell

     iteration # 82     ecut=    10.00 Ry     beta= 0.70
     Davidson diagonalization with overlap
     ethr =  6.66E-07,  avg # of iterations =  2.0

     negative rho (up, down):  1.042E+00 1.196E-01

     total cpu time spent up to now is      109.9 secs

     total energy              =    -396.39423100 Ry
     Harris-Foulkes estimate   =    -396.40990412 Ry
     estimated scf accuracy    <       0.61828539 Ry

     total magnetization       =     2.04 Bohr mag/cell
     absolute magnetization    =    14.61 Bohr mag/cell

     iteration # 83     ecut=    10.00 Ry     beta= 0.70
     Davidson diagonalization with overlap
     c_bands:  1 eigenvalues not converged
     ethr =  6.66E-07,  avg # of iterations =  3.9

     negative rho (up, down):  1.107E+00 1.185E-01

     total cpu time spent up to now is      111.7 secs

     total energy              =    -396.42445193 Ry
     Harris-Foulkes estimate   =    -396.39550613 Ry
     estimated scf accuracy    <       1.08214817 Ry

     total magnetization       =     2.69 Bohr mag/cell
     absolute magnetization    =    14.68 Bohr mag/cell

     iteration # 84     ecut=    10.00 Ry     beta= 0.70
     Davidson diagonalization with overlap
     ethr =  6.66E-07,  avg # of iterations =  5.5

     negative rho (up, down):  1.072E+00 1.171E-01

     total cpu time spent up to now is      114.1 secs

     total energy              =    -396.43424036 Ry
     Harris-Foulkes estimate   =    -396.44578644 Ry
     estimated scf accuracy    <       3.34993727 Ry

     total magnetization       =     4.27 Bohr mag/cell
     absolute magnetization    =    14.70 Bohr mag/cell

     iteration # 85     ecut=    10.00 Ry     beta= 0.70
     Davidson diagonalization with overlap
     ethr =  6.66E-07,  avg # of iterations =  2.9

     negative rho (up, down):  1.051E+00 1.168E-01

     total cpu time spent up to now is      115.7 secs

     total energy              =    -396.29913323 Ry
     Harris-Foulkes estimate   =    -396.43501314 Ry
     estimated scf accuracy    <       2.83186806 Ry

     total magnetization       =     4.13 Bohr mag/cell
     absolute magnetization    =    14.76 Bohr mag/cell

     iteration # 86     ecut=    10.00 Ry     beta= 0.70
     Davidson diagonalization with overlap
     ethr =  6.66E-07,  avg # of iterations =  6.3

     negative rho (up, down):  1.044E+00 1.162E-01

     total cpu time spent up to now is      118.3 secs

     total energy              =    -396.40344471 Ry
     Harris-Foulkes estimate   =    -396.42381307 Ry
     estimated scf accuracy    <       1.57388178 Ry

     total magnetization       =     3.11 Bohr mag/cell
     absolute magnetization    =    14.65 Bohr mag/cell

     iteration # 87     ecut=    10.00 Ry     beta= 0.70
     Davidson diagonalization with overlap
     ethr =  6.66E-07,  avg # of iterations =  3.5

     negative rho (up, down):  1.000E+00 1.109E-01

     total cpu time spent up to now is      120.0 secs

     total energy              =    -396.34810670 Ry
     Harris-Foulkes estimate   =    -396.40612278 Ry
     estimated scf accuracy    <       0.84862653 Ry

     total magnetization       =     2.28 Bohr mag/cell
     absolute magnetization    =    14.58 Bohr mag/cell

     iteration # 88     ecut=    10.00 Ry     beta= 0.70
     Davidson diagonalization with overlap
     ethr =  6.66E-07,  avg # of iterations =  4.8

     negative rho (up, down):  1.040E+00 1.167E-01

     total cpu time spent up to now is      122.3 secs

     total energy              =    -395.99251846 Ry
     Harris-Foulkes estimate   =    -396.35858235 Ry
     estimated scf accuracy    <       0.46094596 Ry

     total magnetization       =     1.65 Bohr mag/cell
     absolute magnetization    =    14.55 Bohr mag/cell

     iteration # 89     ecut=    10.00 Ry     beta= 0.70
     Davidson diagonalization with overlap
     ethr =  6.66E-07,  avg # of iterations =  7.0

     negative rho (up, down):  9.988E-01 1.126E-01

     total cpu time spent up to now is      125.0 secs

     total energy              =    -396.37093899 Ry
     Harris-Foulkes estimate   =    -396.32268417 Ry
     estimated scf accuracy    <       0.22313296 Ry

     total magnetization       =     0.86 Bohr mag/cell
     absolute magnetization    =    14.60 Bohr mag/cell

     iteration # 90     ecut=    10.00 Ry     beta= 0.70
     Davidson diagonalization with overlap
     ethr =  6.66E-07,  avg # of iterations =  5.4

     negative rho (up, down):  1.019E+00 1.146E-01

     total cpu time spent up to now is      127.5 secs

     total energy              =    -396.41111700 Ry
     Harris-Foulkes estimate   =    -396.44338867 Ry
     estimated scf accuracy    <       2.20297858 Ry

     total magnetization       =    -3.72 Bohr mag/cell
     absolute magnetization    =    14.72 Bohr mag/cell

     iteration # 91     ecut=    10.00 Ry     beta= 0.70
     Davidson diagonalization with overlap
     ethr =  6.66E-07,  avg # of iterations =  4.0

     negative rho (up, down):  1.032E+00 1.146E-01

     total cpu time spent up to now is      129.3 secs

     total energy              =    -396.39479984 Ry
     Harris-Foulkes estimate   =    -396.41459450 Ry
     estimated scf accuracy    <       1.02290845 Ry

     total magnetization       =    -2.56 Bohr mag/cell
     absolute magnetization    =    14.61 Bohr mag/cell

     iteration # 92     ecut=    10.00 Ry     beta= 0.70
     Davidson diagonalization with overlap
     ethr =  6.66E-07,  avg # of iterations =  3.4

     negative rho (up, down):  1.035E+00 1.146E-01

     total cpu time spent up to now is      130.9 secs

     total energy              =    -396.39991091 Ry
     Harris-Foulkes estimate   =    -396.40308228 Ry
     estimated scf accuracy    <       0.15352237 Ry

     total magnetization       =    -0.98 Bohr mag/cell
     absolute magnetization    =    14.55 Bohr mag/cell

     iteration # 93     ecut=    10.00 Ry     beta= 0.70
     Davidson diagonalization with overlap
     ethr =  6.66E-07,  avg # of iterations =  2.5

     negative rho (up, down):  1.034E+00 1.136E-01

     total cpu time spent up to now is      132.3 secs

     total energy              =    -396.40167916 Ry
     Harris-Foulkes estimate   =    -396.40079746 Ry
     estimated scf accuracy    <       0.05436530 Ry

     total magnetization       =    -0.59 Bohr mag/cell
     absolute magnetization    =    14.54 Bohr mag/cell

     iteration # 94     ecut=    10.00 Ry     beta= 0.70
     Davidson diagonalization with overlap
     ethr =  6.66E-07,  avg # of iterations =  1.0

     negative rho (up, down):  1.043E+00 1.157E-01

     total cpu time spent up to now is      133.4 secs

     total energy              =    -396.39967748 Ry
     Harris-Foulkes estimate   =    -396.40171649 Ry
     estimated scf accuracy    <       0.04492126 Ry

     total magnetization       =    -0.53 Bohr mag/cell
     absolute magnetization    =    14.54 Bohr mag/cell

     iteration # 95     ecut=    10.00 Ry     beta= 0.70
     Davidson diagonalization with overlap
     ethr =  6.66E-07,  avg # of iterations =  2.7

     negative rho (up, down):  1.029E+00 1.157E-01

     total cpu time spent up to now is      134.9 secs

     total energy              =    -396.38717350 Ry
     Harris-Foulkes estimate   =    -396.40197060 Ry
     estimated scf accuracy    <       0.04999280 Ry

     total magnetization       =     0.57 Bohr mag/cell
     absolute magnetization    =    14.53 Bohr mag/cell

     iteration # 96     ecut=    10.00 Ry     beta= 0.70
     Davidson diagonalization with overlap
     ethr =  6.66E-07,  avg # of iterations =  3.5

     negative rho (up, down):  1.024E+00 1.160E-01

     total cpu time spent up to now is      136.6 secs

     total energy              =    -396.28465745 Ry
     Harris-Foulkes estimate   =    -396.40480170 Ry
     estimated scf accuracy    <       0.05235035 Ry

     total magnetization       =    -0.57 Bohr mag/cell
     absolute magnetization    =    14.54 Bohr mag/cell

     iteration # 97     ecut=    10.00 Ry     beta= 0.70
     Davidson diagonalization with overlap
     ethr =  6.66E-07,  avg # of iterations =  5.6

     negative rho (up, down):  1.030E+00 1.171E-01

     total cpu time spent up to now is      138.9 secs

     total energy              =    -396.38410219 Ry
     Harris-Foulkes estimate   =    -396.35743655 Ry
     estimated scf accuracy    <       0.31989577 Ry

     total magnetization       =     1.46 Bohr mag/cell
     absolute magnetization    =    14.63 Bohr mag/cell

     iteration # 98     ecut=    10.00 Ry     beta= 0.70
     Davidson diagonalization with overlap
     ethr =  6.66E-07,  avg # of iterations =  2.0

     negative rho (up, down):  1.029E+00 1.171E-01

     total cpu time spent up to now is      140.3 secs

     total energy              =    -396.38562906 Ry
     Harris-Foulkes estimate   =    -396.38468092 Ry
     estimated scf accuracy    <       0.20678142 Ry

     total magnetization       =     1.15 Bohr mag/cell
     absolute magnetization    =    14.60 Bohr mag/cell

     iteration # 99     ecut=    10.00 Ry     beta= 0.70
     Davidson diagonalization with overlap
     ethr =  6.66E-07,  avg # of iterations =  1.0

     negative rho (up, down):  1.028E+00 1.172E-01

     total cpu time spent up to now is      141.5 secs

     total energy              =    -396.38500288 Ry
     Harris-Foulkes estimate   =    -396.38564363 Ry
     estimated scf accuracy    <       0.18364526 Ry

     total magnetization       =     1.09 Bohr mag/cell
     absolute magnetization    =    14.59 Bohr mag/cell

     iteration #100     ecut=    10.00 Ry     beta= 0.70
     Davidson diagonalization with overlap
     ethr =  6.66E-07,  avg # of iterations =  1.4

     negative rho (up, down):  1.040E+00 1.167E-01

     Magnetic moment per site:
     atom:    1    charge:   14.9432    magn:    6.9770    constr:    0.0000
     atom:    2    charge:   14.9299    magn:   -6.9600    constr:    0.0000

     total cpu time spent up to now is      142.6 secs

     total energy              =    -396.36730682 Ry
     Harris-Foulkes estimate   =    -396.38508617 Ry
     estimated scf accuracy    <       0.13194779 Ry

     total magnetization       =     0.91 Bohr mag/cell
     absolute magnetization    =    14.58 Bohr mag/cell

     iteration #101     ecut=    10.00 Ry     beta= 0.70
     Davidson diagonalization with overlap
     ethr =  6.66E-07,  avg # of iterations =  4.8

     negative rho (up, down):  1.049E+00 1.182E-01

     total cpu time spent up to now is      144.8 secs

     total energy              =    -396.40087022 Ry
     Harris-Foulkes estimate   =    -396.40138371 Ry
     estimated scf accuracy    <       0.01015280 Ry

     total magnetization       =    -0.26 Bohr mag/cell
     absolute magnetization    =    14.53 Bohr mag/cell

     iteration #102     ecut=    10.00 Ry     beta= 0.70
     Davidson diagonalization with overlap
     ethr =  6.66E-07,  avg # of iterations =  2.1

     negative rho (up, down):  1.043E+00 1.193E-01

     total cpu time spent up to now is      146.2 secs

     total energy              =    -396.33999713 Ry
     Harris-Foulkes estimate   =    -396.40116069 Ry
     estimated scf accuracy    <       0.02496420 Ry

     total magnetization       =    -0.41 Bohr mag/cell
     absolute magnetization    =    14.53 Bohr mag/cell

     iteration #103     ecut=    10.00 Ry     beta= 0.70
     Davidson diagonalization with overlap
     ethr =  6.66E-07,  avg # of iterations =  4.3

     negative rho (up, down):  1.052E+00 1.173E-01

     total cpu time spent up to now is      148.2 secs

     total energy              =    -396.25766923 Ry
     Harris-Foulkes estimate   =    -396.39981902 Ry
     estimated scf accuracy    <       0.05797233 Ry

     total magnetization       =     0.57 Bohr mag/cell
     absolute magnetization    =    14.54 Bohr mag/cell

     iteration #104     ecut=    10.00 Ry     beta= 0.70
     Davidson diagonalization with overlap
     ethr =  6.66E-07,  avg # of iterations =  5.3

     negative rho (up, down):  1.048E+00 1.177E-01

     total cpu time spent up to now is      150.5 secs

     total energy              =    -396.39734840 Ry
     Harris-Foulkes estimate   =    -396.40461906 Ry
     estimated scf accuracy    <       0.76313801 Ry

     total magnetization       =     2.10 Bohr mag/cell
     absolute magnetization    =    14.57 Bohr mag/cell

     iteration #105     ecut=    10.00 Ry     beta= 0.70
     Davidson diagonalization with overlap
     ethr =  6.66E-07,  avg # of iterations =  2.8

     negative rho (up, down):  1.052E+00 1.177E-01

     total cpu time spent up to now is      152.1 secs

     total energy              =    -396.39996755 Ry
     Harris-Foulkes estimate   =    -396.40349240 Ry
     estimated scf accuracy    <       0.36526820 Ry

     total magnetization       =     1.50 Bohr mag/cell
     absolute magnetization    =    14.54 Bohr mag/cell

     iteration #106     ecut=    10.00 Ry     beta= 0.70
     Davidson diagonalization with overlap
     ethr =  6.66E-07,  avg # of iterations =  1.5

     negative rho (up, down):  1.055E+00 1.193E-01

     total cpu time spent up to now is      153.3 secs

     total energy              =    -396.40278259 Ry
     Harris-Foulkes estimate   =    -396.40009693 Ry
     estimated scf accuracy    <       0.41592925 Ry

     total magnetization       =     1.61 Bohr mag/cell
     absolute magnetization    =    14.55 Bohr mag/cell

     iteration #107     ecut=    10.00 Ry     beta= 0.70
     Davidson diagonalization with overlap
     ethr =  6.66E-07,  avg # of iterations =  2.0

     negative rho (up, down):  1.054E+00 1.168E-01

     total cpu time spent up to now is      154.6 secs

     total energy              =    -396.39107668 Ry
     Harris-Foulkes estimate   =    -396.40324289 Ry
     estimated scf accuracy    <       0.60936323 Ry

     total magnetization       =     1.95 Bohr mag/cell
     absolute magnetization    =    14.56 Bohr mag/cell

     iteration #108     ecut=    10.00 Ry     beta= 0.70
     Davidson diagonalization with overlap
     ethr =  6.66E-07,  avg # of iterations =  4.3

     negative rho (up, down):  1.047E+00 1.167E-01

     total cpu time spent up to now is      156.6 secs

     total energy              =    -396.40108686 Ry
     Harris-Foulkes estimate   =    -396.41151847 Ry
     estimated scf accuracy    <       1.07901892 Ry

     total magnetization       =     2.52 Bohr mag/cell
     absolute magnetization    =    14.60 Bohr mag/cell

     iteration #109     ecut=    10.00 Ry     beta= 0.70
     Davidson diagonalization with overlap
     ethr =  6.66E-07,  avg # of iterations =  2.7

     negative rho (up, down):  1.051E+00 1.193E-01

     total cpu time spent up to now is      158.2 secs

     total energy              =    -396.32870013 Ry
     Harris-Foulkes estimate   =    -396.40308543 Ry
     estimated scf accuracy    <       0.63389398 Ry

     total magnetization       =     1.93 Bohr mag/cell
     absolute magnetization    =    14.56 Bohr mag/cell

     iteration #110     ecut=    10.00 Ry     beta= 0.70
     Davidson diagonalization with overlap
     ethr =  6.66E-07,  avg # of iterations =  5.0

     negative rho (up, down):  1.050E+00 1.198E-01

     total cpu time spent up to now is      160.4 secs

     total energy              =    -396.40229961 Ry
     Harris-Foulkes estimate   =    -396.40218818 Ry
     estimated scf accuracy    <       0.35785193 Ry

     total magnetization       =     1.50 Bohr mag/cell
     absolute magnetization    =    14.55 Bohr mag/cell

     iteration #111     ecut=    10.00 Ry     beta= 0.70
     Davidson diagonalization with overlap
     ethr =  6.66E-07,  avg # of iterations =  2.4

     negative rho (up, down):  1.266E+00 1.191E-01

     total cpu time spent up to now is      161.8 secs

     total energy              =    -396.39225741 Ry
     Harris-Foulkes estimate   =    -396.40454243 Ry
     estimated scf accuracy    <       0.09773316 Ry

     total magnetization       =     0.75 Bohr mag/cell
     absolute magnetization    =    14.53 Bohr mag/cell

     iteration #112     ecut=    10.00 Ry     beta= 0.70
     Davidson diagonalization with overlap
     ethr =  6.66E-07,  avg # of iterations =  6.2

     negative rho (up, down):  1.089E+00 1.195E-01

     total cpu time spent up to now is      164.4 secs

     total energy              =    -396.39775331 Ry
     Harris-Foulkes estimate   =    -396.45088861 Ry
     estimated scf accuracy    <       2.78209881 Ry

     total magnetization       =     3.81 Bohr mag/cell
     absolute magnetization    =    14.74 Bohr mag/cell

     iteration #113     ecut=    10.00 Ry     beta= 0.70
     Davidson diagonalization with overlap
     ethr =  6.66E-07,  avg # of iterations =  4.6

     negative rho (up, down):  1.050E+00 1.198E-01

     total cpu time spent up to now is      166.4 secs

     total energy              =    -396.40845824 Ry
     Harris-Foulkes estimate   =    -396.39959214 Ry
     estimated scf accuracy    <       2.88450149 Ry

     total magnetization       =     4.12 Bohr mag/cell
     absolute magnetization    =    14.79 Bohr mag/cell

     iteration #114     ecut=    10.00 Ry     beta= 0.70
     Davidson diagonalization with overlap
     ethr =  6.66E-07,  avg # of iterations =  4.3

     negative rho (up, down):  1.209E+00 1.186E-01

     total cpu time spent up to now is      168.6 secs

     total energy              =    -396.45057797 Ry
     Harris-Foulkes estimate   =    -396.41468504 Ry
     estimated scf accuracy    <       1.41004157 Ry

     total magnetization       =     3.09 Bohr mag/cell
     absolute magnetization    =    14.70 Bohr mag/cell

     iteration #115     ecut=    10.00 Ry     beta= 0.70
     Davidson diagonalization with overlap
     ethr =  6.66E-07,  avg # of iterations =  4.4

     negative rho (up, down):  1.156E+00 1.191E-01

     total cpu time spent up to now is      170.8 secs

     total energy              =    -396.42293897 Ry
     Harris-Foulkes estimate   =    -396.45607204 Ry
     estimated scf accuracy    <       2.33498038 Ry

     total magnetization       =     3.52 Bohr mag/cell
     absolute magnetization    =    14.73 Bohr mag/cell

     iteration #116     ecut=    10.00 Ry     beta= 0.70
     Davidson diagonalization with overlap
     ethr =  6.66E-07,  avg # of iterations =  2.7

     negative rho (up, down):  1.061E+00 1.176E-01

     total cpu time spent up to now is      172.3 secs

     total energy              =    -396.37012585 Ry
     Harris-Foulkes estimate   =    -396.42326511 Ry
     estimated scf accuracy    <       2.06434896 Ry

     total magnetization       =     3.36 Bohr mag/cell
     absolute magnetization    =    14.72 Bohr mag/cell

     iteration #117     ecut=    10.00 Ry     beta= 0.70
     Davidson diagonalization with overlap
     ethr =  6.66E-07,  avg # of iterations =  4.1

     negative rho (up, down):  1.053E+00 1.187E-01

     total cpu time spent up to now is      174.3 secs

     total energy              =    -396.37514482 Ry
     Harris-Foulkes estimate   =    -396.37349114 Ry
     estimated scf accuracy    <       1.07566827 Ry

     total magnetization       =     2.59 Bohr mag/cell
     absolute magnetization    =    14.66 Bohr mag/cell

     iteration #118     ecut=    10.00 Ry     beta= 0.70
     Davidson diagonalization with overlap
     ethr =  6.66E-07,  avg # of iterations =  4.6

     negative rho (up, down):  1.052E+00 1.177E-01

     total cpu time spent up to now is      176.6 secs

     total energy              =    -396.39221377 Ry
     Harris-Foulkes estimate   =    -396.39613768 Ry
     estimated scf accuracy    <       0.00958316 Ry

     total magnetization       =    -0.23 Bohr mag/cell
     absolute magnetization    =    14.52 Bohr mag/cell

     iteration #119     ecut=    10.00 Ry     beta= 0.70
     Davidson diagonalization with overlap
     ethr =  6.66E-07,  avg # of iterations =  3.3

     negative rho (up, down):  1.048E+00 1.182E-01

     total cpu time spent up to now is      178.1 secs

     total energy              =    -396.39720592 Ry
     Harris-Foulkes estimate   =    -396.39679462 Ry
     estimated scf accuracy    <       0.24098693 Ry

     total magnetization       =    -1.29 Bohr mag/cell
     absolute magnetization    =    14.54 Bohr mag/cell

     iteration #120     ecut=    10.00 Ry     beta= 0.70
     Davidson diagonalization with overlap
     ethr =  6.66E-07,  avg # of iterations =  2.7

     negative rho (up, down):  1.046E+00 1.187E-01

     total cpu time spent up to now is      179.8 secs

     total energy              =    -396.40133002 Ry
     Harris-Foulkes estimate   =    -396.40164961 Ry
     estimated scf accuracy    <       0.00994374 Ry

     total magnetization       =    -0.26 Bohr mag/cell
     absolute magnetization    =    14.52 Bohr mag/cell

     iteration #121     ecut=    10.00 Ry     beta= 0.70
     Davidson diagonalization with overlap
     ethr =  6.66E-07,  avg # of iterations =  1.7

     negative rho (up, down):  1.043E+00 1.167E-01

     total cpu time spent up to now is      181.0 secs

     total energy              =    -396.39906793 Ry
     Harris-Foulkes estimate   =    -396.40201063 Ry
     estimated scf accuracy    <       0.00128148 Ry

     total magnetization       =    -0.02 Bohr mag/cell
     absolute magnetization    =    14.52 Bohr mag/cell

     iteration #122     ecut=    10.00 Ry     beta= 0.70
     Davidson diagonalization with overlap
     ethr =  6.66E-07,  avg # of iterations =  2.5

     negative rho (up, down):  1.043E+00 1.167E-01

     total cpu time spent up to now is      182.7 secs

     total energy              =    -396.40252343 Ry
     Harris-Foulkes estimate   =    -396.40283160 Ry
     estimated scf accuracy    <       0.08524932 Ry

     total magnetization       =     0.74 Bohr mag/cell
     absolute magnetization    =    14.53 Bohr mag/cell

     iteration #123     ecut=    10.00 Ry     beta= 0.70
     Davidson diagonalization with overlap
     ethr =  6.66E-07,  avg # of iterations =  1.5

     negative rho (up, down):  1.040E+00 1.172E-01

     total cpu time spent up to now is      183.9 secs

     total energy              =    -396.38972131 Ry
     Harris-Foulkes estimate   =    -396.40271994 Ry
     estimated scf accuracy    <       0.09483341 Ry

     total magnetization       =     0.78 Bohr mag/cell
     absolute magnetization    =    14.53 Bohr mag/cell

     iteration #124     ecut=    10.00 Ry     beta= 0.70
     Davidson diagonalization with overlap
     ethr =  6.66E-07,  avg # of iterations =  3.6

     negative rho (up, down):  1.033E+00 1.131E-01

     total cpu time spent up to now is      185.7 secs

     total energy              =    -396.40081249 Ry
     Harris-Foulkes estimate   =    -396.40029411 Ry
     estimated scf accuracy    <       0.43228777 Ry

     total magnetization       =     1.64 Bohr mag/cell
     absolute magnetization    =    14.54 Bohr mag/cell

     iteration #125     ecut=    10.00 Ry     beta= 0.70
     Davidson diagonalization with overlap
     ethr =  6.66E-07,  avg # of iterations =  3.4

     negative rho (up, down):  1.039E+00 1.172E-01

     total cpu time spent up to now is      187.4 secs

     total energy              =    -396.39694659 Ry
     Harris-Foulkes estimate   =    -396.40560257 Ry
     estimated scf accuracy    <       0.91572208 Ry

     total magnetization       =     2.39 Bohr mag/cell
     absolute magnetization    =    14.59 Bohr mag/cell

     iteration #126     ecut=    10.00 Ry     beta= 0.70
     Davidson diagonalization with overlap
     ethr =  6.66E-07,  avg # of iterations =  2.8

     negative rho (up, down):  1.040E+00 1.157E-01

     total cpu time spent up to now is      189.1 secs

     total energy              =    -396.39491368 Ry
     Harris-Foulkes estimate   =    -396.40267065 Ry
     estimated scf accuracy    <       0.37269960 Ry

     total magnetization       =     1.55 Bohr mag/cell
     absolute magnetization    =    14.55 Bohr mag/cell

     iteration #127     ecut=    10.00 Ry     beta= 0.70
     Davidson diagonalization with overlap
     ethr =  6.66E-07,  avg # of iterations =  3.2

     negative rho (up, down):  1.040E+00 1.146E-01

     total cpu time spent up to now is      190.8 secs

     total energy              =    -396.39752879 Ry
     Harris-Foulkes estimate   =    -396.40122924 Ry
     estimated scf accuracy    <       0.03098932 Ry

     total magnetization       =     0.44 Bohr mag/cell
     absolute magnetization    =    14.53 Bohr mag/cell

     iteration #128     ecut=    10.00 Ry     beta= 0.70
     Davidson diagonalization with overlap
     ethr =  6.66E-07,  avg # of iterations =  2.6

     negative rho (up, down):  1.038E+00 1.146E-01

     total cpu time spent up to now is      192.4 secs

     total energy              =    -396.40148963 Ry
     Harris-Foulkes estimate   =    -396.40117571 Ry
     estimated scf accuracy    <       0.00703421 Ry

     total magnetization       =    -0.22 Bohr mag/cell
     absolute magnetization    =    14.53 Bohr mag/cell

     iteration #129     ecut=    10.00 Ry     beta= 0.70
     Davidson diagonalization with overlap
     ethr =  6.66E-07,  avg # of iterations =  1.1

     negative rho (up, down):  1.038E+00 1.146E-01

     total cpu time spent up to now is      193.5 secs

     total energy              =    -396.40199367 Ry
     Harris-Foulkes estimate   =    -396.40184024 Ry
     estimated scf accuracy    <       0.00484348 Ry

     total magnetization       =     0.17 Bohr mag/cell
     absolute magnetization    =    14.53 Bohr mag/cell

     iteration #130     ecut=    10.00 Ry     beta= 0.70
     Davidson diagonalization with overlap
     ethr =  6.66E-07,  avg # of iterations =  1.0

     negative rho (up, down):  1.038E+00 1.167E-01

     total cpu time spent up to now is      194.6 secs

     total energy              =    -396.40143500 Ry
     Harris-Foulkes estimate   =    -396.40200670 Ry
     estimated scf accuracy    <       0.01000545 Ry

     total magnetization       =     0.25 Bohr mag/cell
     absolute magnetization    =    14.53 Bohr mag/cell

     iteration #131     ecut=    10.00 Ry     beta= 0.70
     Davidson diagonalization with overlap
     ethr =  6.66E-07,  avg # of iterations =  2.5

     negative rho (up, down):  1.038E+00 1.167E-01

     total cpu time spent up to now is      196.2 secs

     total energy              =    -396.40404496 Ry
     Harris-Foulkes estimate   =    -396.40395829 Ry
     estimated scf accuracy    <       0.03782721 Ry

     total magnetization       =     0.49 Bohr mag/cell
     absolute magnetization    =    14.53 Bohr mag/cell

     iteration #132     ecut=    10.00 Ry     beta= 0.70
     Davidson diagonalization with overlap
     ethr =  6.66E-07,  avg # of iterations =  2.0

     negative rho (up, down):  1.036E+00 1.136E-01

     total cpu time spent up to now is      197.5 secs

     total energy              =    -396.34009936 Ry
     Harris-Foulkes estimate   =    -396.40505733 Ry
     estimated scf accuracy    <       0.08797482 Ry

     total magnetization       =     0.75 Bohr mag/cell
     absolute magnetization    =    14.53 Bohr mag/cell

     iteration #133     ecut=    10.00 Ry     beta= 0.70
     Davidson diagonalization with overlap
     ethr =  6.66E-07,  avg # of iterations =  4.3

     negative rho (up, down):  1.038E+00 1.187E-01

     total cpu time spent up to now is      199.6 secs

     total energy              =    -396.33769820 Ry
     Harris-Foulkes estimate   =    -396.39882146 Ry
     estimated scf accuracy    <       0.39115247 Ry

     total magnetization       =     1.55 Bohr mag/cell
     absolute magnetization    =    14.54 Bohr mag/cell

     iteration #134     ecut=    10.00 Ry     beta= 0.70
     Davidson diagonalization with overlap
     ethr =  6.66E-07,  avg # of iterations =  4.7

     negative rho (up, down):  1.037E+00 1.134E-01

     total cpu time spent up to now is      201.7 secs

     total energy              =    -396.15034876 Ry
     Harris-Foulkes estimate   =    -396.40659291 Ry
     estimated scf accuracy    <       0.14167902 Ry

     total magnetization       =     0.95 Bohr mag/cell
     absolute magnetization    =    14.54 Bohr mag/cell

     iteration #135     ecut=    10.00 Ry     beta= 0.70
     Davidson diagonalization with overlap
     ethr =  6.66E-07,  avg # of iterations =  6.3

     negative rho (up, down):  1.036E+00 1.136E-01

     total cpu time spent up to now is      204.3 secs

     total energy              =    -396.40758568 Ry
     Harris-Foulkes estimate   =    -396.39844308 Ry
     estimated scf accuracy    <       1.26307400 Ry

     total magnetization       =     2.72 Bohr mag/cell
     absolute magnetization    =    14.64 Bohr mag/cell

     iteration #136     ecut=    10.00 Ry     beta= 0.70
     Davidson diagonalization with overlap
     ethr =  6.66E-07,  avg # of iterations =  3.8

     negative rho (up, down):  1.038E+00 1.157E-01

     total cpu time spent up to now is      206.3 secs

     total energy              =    -396.38663787 Ry
     Harris-Foulkes estimate   =    -396.40862937 Ry
     estimated scf accuracy    <       0.97447126 Ry

     total magnetization       =     2.47 Bohr mag/cell
     absolute magnetization    =    14.59 Bohr mag/cell

     iteration #137     ecut=    10.00 Ry     beta= 0.70
     Davidson diagonalization with overlap
     ethr =  6.66E-07,  avg # of iterations =  3.6

     negative rho (up, down):  1.039E+00 1.157E-01

     total cpu time spent up to now is      208.1 secs

[...]

     total magnetization       =    -1.52 Bohr mag/cell
     absolute magnetization    =    14.55 Bohr mag/cell

     iteration #369     ecut=    10.00 Ry     beta= 0.70
     Davidson diagonalization with overlap
     ethr =  3.21E-07,  avg # of iterations =  6.1

     negative rho (up, down):  1.036E+00 1.177E-01

     total cpu time spent up to now is      613.1 secs

     total energy              =    -396.35130395 Ry
     Harris-Foulkes estimate   =    -396.40473045 Ry
     estimated scf accuracy    <       0.69370855 Ry

     total magnetization       =    -2.02 Bohr mag/cell
     absolute magnetization    =    14.57 Bohr mag/cell

     iteration #370     ecut=    10.00 Ry     beta= 0.70
     Davidson diagonalization with overlap
     ethr =  3.21E-07,  avg # of iterations =  6.4

     negative rho (up, down):  1.036E+00 1.167E-01

     total cpu time spent up to now is      615.8 secs

     total energy              =    -396.40330473 Ry
     Harris-Foulkes estimate   =    -396.40351970 Ry
     estimated scf accuracy    <       0.00649228 Ry

     total magnetization       =     0.21 Bohr mag/cell
     absolute magnetization    =    14.53 Bohr mag/cell

     iteration #371     ecut=    10.00 Ry     beta= 0.70
     Davidson diagonalization with overlap
     ethr =  3.21E-07,  avg # of iterations =  2.0

     negative rho (up, down):  1.036E+00 1.167E-01

     total cpu time spent up to now is      617.0 secs

     total energy              =    -396.40182940 Ry
     Harris-Foulkes estimate   =    -396.40336826 Ry
     estimated scf accuracy    <       0.00121448 Ry

     total magnetization       =     0.09 Bohr mag/cell
     absolute magnetization    =    14.53 Bohr mag/cell

     iteration #372     ecut=    10.00 Ry     beta= 0.70
     Davidson diagonalization with overlap
     ethr =  3.21E-07,  avg # of iterations =  1.5

     negative rho (up, down):  1.036E+00 1.167E-01

     total cpu time spent up to now is      618.3 secs

     total energy              =    -396.40213720 Ry
     Harris-Foulkes estimate   =    -396.40212637 Ry
     estimated scf accuracy    <       0.00012900 Ry

     total magnetization       =    -0.02 Bohr mag/cell
     absolute magnetization    =    14.53 Bohr mag/cell

     iteration #373     ecut=    10.00 Ry     beta= 0.70
     Davidson diagonalization with overlap
     ethr =  3.21E-07,  avg # of iterations =  1.5

     negative rho (up, down):  1.035E+00 1.167E-01

     total cpu time spent up to now is      619.5 secs

     total energy              =    -396.40313974 Ry
     Harris-Foulkes estimate   =    -396.40220667 Ry
     estimated scf accuracy    <       0.00007087 Ry

     total magnetization       =     0.02 Bohr mag/cell
     absolute magnetization    =    14.53 Bohr mag/cell

     iteration #374     ecut=    10.00 Ry     beta= 0.70
     Davidson diagonalization with overlap
     ethr =  2.36E-07,  avg # of iterations =  2.0

     negative rho (up, down):  1.035E+00 1.167E-01

     total cpu time spent up to now is      621.0 secs

     total energy              =    -396.40340321 Ry
     Harris-Foulkes estimate   =    -396.40344431 Ry
     estimated scf accuracy    <       0.00082440 Ry

     total magnetization       =     0.07 Bohr mag/cell
     absolute magnetization    =    14.53 Bohr mag/cell

     iteration #375     ecut=    10.00 Ry     beta= 0.70
     Davidson diagonalization with overlap
     ethr =  2.36E-07,  avg # of iterations =  1.5

     negative rho (up, down):  1.035E+00 1.177E-01

     total cpu time spent up to now is      622.3 secs

     total energy              =    -396.40359698 Ry
     Harris-Foulkes estimate   =    -396.40354614 Ry
     estimated scf accuracy    <       0.00174524 Ry

     total magnetization       =     0.11 Bohr mag/cell
     absolute magnetization    =    14.53 Bohr mag/cell

     iteration #376     ecut=    10.00 Ry     beta= 0.70
     Davidson diagonalization with overlap
     ethr =  2.36E-07,  avg # of iterations =  1.0

     negative rho (up, down):  1.035E+00 1.167E-01

     total cpu time spent up to now is      623.5 secs

     total energy              =    -396.40363153 Ry
     Harris-Foulkes estimate   =    -396.40361760 Ry
     estimated scf accuracy    <       0.00132368 Ry

     total magnetization       =     0.09 Bohr mag/cell
     absolute magnetization    =    14.53 Bohr mag/cell

     iteration #377     ecut=    10.00 Ry     beta= 0.70
     Davidson diagonalization with overlap
     ethr =  2.36E-07,  avg # of iterations =  1.9

     negative rho (up, down):  1.034E+00 1.167E-01

     total cpu time spent up to now is      624.8 secs

     total energy              =    -396.40110451 Ry
     Harris-Foulkes estimate   =    -396.40369695 Ry
     estimated scf accuracy    <       0.00065622 Ry

     total magnetization       =     0.06 Bohr mag/cell
     absolute magnetization    =    14.53 Bohr mag/cell

     iteration #378     ecut=    10.00 Ry     beta= 0.70
     Davidson diagonalization with overlap
     ethr =  2.36E-07,  avg # of iterations =  3.9

     negative rho (up, down):  1.037E+00 1.157E-01

     total cpu time spent up to now is      626.9 secs

     total energy              =    -396.38800056 Ry
     Harris-Foulkes estimate   =    -396.40501120 Ry
     estimated scf accuracy    <       0.01065172 Ry

     total magnetization       =    -0.26 Bohr mag/cell
     absolute magnetization    =    14.53 Bohr mag/cell

     iteration #379     ecut=    10.00 Ry     beta= 0.70
     Davidson diagonalization with overlap
     ethr =  2.36E-07,  avg # of iterations =  4.5

     negative rho (up, down):  1.037E+00 1.157E-01

     total cpu time spent up to now is      629.1 secs

     total energy              =    -396.40068242 Ry
     Harris-Foulkes estimate   =    -396.40204243 Ry
     estimated scf accuracy    <       0.00570653 Ry

     total magnetization       =    -0.19 Bohr mag/cell
     absolute magnetization    =    14.53 Bohr mag/cell

     iteration #380     ecut=    10.00 Ry     beta= 0.70
     Davidson diagonalization with overlap
     ethr =  2.36E-07,  avg # of iterations =  2.5

     negative rho (up, down):  1.038E+00 1.146E-01

     total cpu time spent up to now is      630.8 secs

     total energy              =    -396.39675672 Ry
     Harris-Foulkes estimate   =    -396.40229155 Ry
     estimated scf accuracy    <       0.00451325 Ry

     total magnetization       =    -0.17 Bohr mag/cell
     absolute magnetization    =    14.53 Bohr mag/cell

     iteration #381     ecut=    10.00 Ry     beta= 0.70
     Davidson diagonalization with overlap
     ethr =  2.36E-07,  avg # of iterations =  3.3

     negative rho (up, down):  1.039E+00 1.141E-01

     total cpu time spent up to now is      632.8 secs

     total energy              =    -396.39086707 Ry
     Harris-Foulkes estimate   =    -396.40060304 Ry
     estimated scf accuracy    <       0.03477975 Ry

     total magnetization       =    -0.47 Bohr mag/cell
     absolute magnetization    =    14.53 Bohr mag/cell

     iteration #382     ecut=    10.00 Ry     beta= 0.70
     Davidson diagonalization with overlap
     ethr =  2.36E-07,  avg # of iterations =  5.6

     negative rho (up, down):  1.038E+00 1.157E-01

     total cpu time spent up to now is      635.2 secs

     total energy              =    -396.39580655 Ry
     Harris-Foulkes estimate   =    -396.39928532 Ry
     estimated scf accuracy    <       0.04355470 Ry

     total magnetization       =    -0.49 Bohr mag/cell
     absolute magnetization    =    14.52 Bohr mag/cell

     iteration #383     ecut=    10.00 Ry     beta= 0.70
     Davidson diagonalization with overlap
     ethr =  2.36E-07,  avg # of iterations =  4.1

     negative rho (up, down):  1.036E+00 1.177E-01

     total cpu time spent up to now is      637.3 secs

     total energy              =    -396.39420689 Ry
     Harris-Foulkes estimate   =    -396.39986436 Ry
     estimated scf accuracy    <       0.00756663 Ry

     total magnetization       =    -0.21 Bohr mag/cell
     absolute magnetization    =    14.53 Bohr mag/cell

     iteration #384     ecut=    10.00 Ry     beta= 0.70
     Davidson diagonalization with overlap
     ethr =  2.36E-07,  avg # of iterations =  5.0

     negative rho (up, down):  1.037E+00 1.167E-01

     total cpu time spent up to now is      639.7 secs

     total energy              =    -396.40186690 Ry
     Harris-Foulkes estimate   =    -396.40330110 Ry
     estimated scf accuracy    <       0.00024449 Ry

     total magnetization       =     0.03 Bohr mag/cell
     absolute magnetization    =    14.53 Bohr mag/cell

     iteration #385     ecut=    10.00 Ry     beta= 0.70
     Davidson diagonalization with overlap
     ethr =  2.36E-07,  avg # of iterations =  1.8

     negative rho (up, down):  1.037E+00 1.157E-01

     total cpu time spent up to now is      641.0 secs

     total energy              =    -396.40178956 Ry
     Harris-Foulkes estimate   =    -396.40210878 Ry
     estimated scf accuracy    <       0.00041691 Ry

     total magnetization       =    -0.05 Bohr mag/cell
     absolute magnetization    =    14.53 Bohr mag/cell

     iteration #386     ecut=    10.00 Ry     beta= 0.70
     Davidson diagonalization with overlap
     ethr =  2.36E-07,  avg # of iterations =  1.5

     negative rho (up, down):  1.037E+00 1.167E-01

     total cpu time spent up to now is      642.3 secs

     total energy              =    -396.40180289 Ry
     Harris-Foulkes estimate   =    -396.40198694 Ry
     estimated scf accuracy    <       0.00027856 Ry

     total magnetization       =    -0.04 Bohr mag/cell
     absolute magnetization    =    14.53 Bohr mag/cell

     iteration #387     ecut=    10.00 Ry     beta= 0.70
     Davidson diagonalization with overlap
     ethr =  2.36E-07,  avg # of iterations =  2.0

     negative rho (up, down):  1.036E+00 1.157E-01

     total cpu time spent up to now is      643.8 secs

     total energy              =    -396.39992487 Ry
     Harris-Foulkes estimate   =    -396.40225161 Ry
     estimated scf accuracy    <       0.00006327 Ry

     total magnetization       =    -0.01 Bohr mag/cell
     absolute magnetization    =    14.53 Bohr mag/cell

     iteration #388     ecut=    10.00 Ry     beta= 0.70
     Davidson diagonalization with overlap
     ethr =  2.11E-07,  avg # of iterations =  2.5

     negative rho (up, down):  1.036E+00 1.177E-01

     total cpu time spent up to now is      645.3 secs

     total energy              =    -396.40119037 Ry
     Harris-Foulkes estimate   =    -396.40092225 Ry
     estimated scf accuracy    <       0.00002775 Ry

     total magnetization       =     0.00 Bohr mag/cell
     absolute magnetization    =    14.53 Bohr mag/cell

     iteration #389     ecut=    10.00 Ry     beta= 0.70
     Davidson diagonalization with overlap
     ethr =  9.25E-08,  avg # of iterations =  3.6

     negative rho (up, down):  1.036E+00 1.177E-01

     total cpu time spent up to now is      647.3 secs

     total energy              =    -396.40363816 Ry
     Harris-Foulkes estimate   =    -396.40362920 Ry
     estimated scf accuracy    <       0.00009836 Ry

     total magnetization       =     0.01 Bohr mag/cell
     absolute magnetization    =    14.53 Bohr mag/cell

     iteration #390     ecut=    10.00 Ry     beta= 0.70
     Davidson diagonalization with overlap
     ethr =  9.25E-08,  avg # of iterations =  1.0

     negative rho (up, down):  1.036E+00 1.157E-01

     total cpu time spent up to now is      648.5 secs

     total energy              =    -396.40250811 Ry
     Harris-Foulkes estimate   =    -396.40363884 Ry
     estimated scf accuracy    <       0.00007902 Ry

     total magnetization       =     0.01 Bohr mag/cell
     absolute magnetization    =    14.53 Bohr mag/cell

     iteration #391     ecut=    10.00 Ry     beta= 0.70
     Davidson diagonalization with overlap
     ethr =  9.25E-08,  avg # of iterations =  2.9

     negative rho (up, down):  1.037E+00 1.146E-01

     total cpu time spent up to now is      650.2 secs

     total energy              =    -396.40117908 Ry
     Harris-Foulkes estimate   =    -396.40325775 Ry
     estimated scf accuracy    <       0.00061130 Ry

     total magnetization       =    -0.06 Bohr mag/cell
     absolute magnetization    =    14.53 Bohr mag/cell

     iteration #392     ecut=    10.00 Ry     beta= 0.70
     Davidson diagonalization with overlap
     ethr =  9.25E-08,  avg # of iterations =  3.0

     negative rho (up, down):  1.039E+00 1.157E-01

     total cpu time spent up to now is      652.0 secs

     total energy              =    -396.39225244 Ry
     Harris-Foulkes estimate   =    -396.40194309 Ry
     estimated scf accuracy    <       0.00006157 Ry

     total magnetization       =     0.00 Bohr mag/cell
     absolute magnetization    =    14.53 Bohr mag/cell

     iteration #393     ecut=    10.00 Ry     beta= 0.70
     Davidson diagonalization with overlap
     ethr =  9.25E-08,  avg # of iterations =  5.8

     negative rho (up, down):  1.037E+00 1.167E-01

     total cpu time spent up to now is      654.6 secs

     total energy              =    -396.39200131 Ry
     Harris-Foulkes estimate   =    -396.39952013 Ry
     estimated scf accuracy    <       0.00741320 Ry

     total magnetization       =     0.21 Bohr mag/cell
     absolute magnetization    =    14.53 Bohr mag/cell

     iteration #394     ecut=    10.00 Ry     beta= 0.70
     Davidson diagonalization with overlap
     ethr =  9.25E-08,  avg # of iterations =  5.8

     negative rho (up, down):  1.037E+00 1.136E-01

     total cpu time spent up to now is      657.1 secs

     total energy              =    -396.39870686 Ry
     Harris-Foulkes estimate   =    -396.40326648 Ry
     estimated scf accuracy    <       0.00020468 Ry

     total magnetization       =     0.03 Bohr mag/cell
     absolute magnetization    =    14.53 Bohr mag/cell

     iteration #395     ecut=    10.00 Ry     beta= 0.70
     Davidson diagonalization with overlap
     ethr =  9.25E-08,  avg # of iterations =  3.5

     negative rho (up, down):  1.037E+00 1.136E-01

     total cpu time spent up to now is      659.1 secs

     total energy              =    -396.40065984 Ry
     Harris-Foulkes estimate   =    -396.40066905 Ry
     estimated scf accuracy    <       0.00069254 Ry

     total magnetization       =     0.06 Bohr mag/cell
     absolute magnetization    =    14.53 Bohr mag/cell

     iteration #396     ecut=    10.00 Ry     beta= 0.70
     Davidson diagonalization with overlap
     ethr =  9.25E-08,  avg # of iterations =  1.0

     negative rho (up, down):  1.036E+00 1.136E-01

     total cpu time spent up to now is      660.2 secs

     total energy              =    -396.40054278 Ry
     Harris-Foulkes estimate   =    -396.40066087 Ry
     estimated scf accuracy    <       0.00072133 Ry

     total magnetization       =     0.06 Bohr mag/cell
     absolute magnetization    =    14.53 Bohr mag/cell

     iteration #397     ecut=    10.00 Ry     beta= 0.70
     Davidson diagonalization with overlap
     ethr =  9.25E-08,  avg # of iterations =  2.1

     negative rho (up, down):  1.037E+00 1.136E-01

     total cpu time spent up to now is      661.6 secs

     total energy              =    -396.40046535 Ry
     Harris-Foulkes estimate   =    -396.40072113 Ry
     estimated scf accuracy    <       0.00015096 Ry

     total magnetization       =     0.03 Bohr mag/cell
     absolute magnetization    =    14.53 Bohr mag/cell

     iteration #398     ecut=    10.00 Ry     beta= 0.70
     Davidson diagonalization with overlap
     ethr =  9.25E-08,  avg # of iterations =  2.5

     negative rho (up, down):  1.036E+00 1.136E-01

     total cpu time spent up to now is      663.1 secs

     total energy              =    -396.40028344 Ry
     Harris-Foulkes estimate   =    -396.40070017 Ry
     estimated scf accuracy    <       0.00062824 Ry

     total magnetization       =     0.06 Bohr mag/cell
     absolute magnetization    =    14.53 Bohr mag/cell

     iteration #399     ecut=    10.00 Ry     beta= 0.70
     Davidson diagonalization with overlap
     ethr =  9.25E-08,  avg # of iterations =  2.5

     negative rho (up, down):  1.035E+00 1.136E-01

     total cpu time spent up to now is      664.7 secs

     total energy              =    -396.40064699 Ry
     Harris-Foulkes estimate   =    -396.40074828 Ry
     estimated scf accuracy    <       0.00003719 Ry

     total magnetization       =    -0.01 Bohr mag/cell
     absolute magnetization    =    14.53 Bohr mag/cell

     iteration #400     ecut=    10.00 Ry     beta= 0.70
     Davidson diagonalization with overlap
     ethr =  9.25E-08,  avg # of iterations =  1.8

     negative rho (up, down):  1.035E+00 1.136E-01

     Magnetic moment per site:
     atom:    1    charge:   14.9368    magn:    6.9637    constr:    0.0000
     atom:    2    charge:   14.9362    magn:   -6.9633    constr:    0.0000

     total cpu time spent up to now is      666.0 secs

     total energy              =    -396.40061075 Ry
     Harris-Foulkes estimate   =    -396.40067730 Ry
     estimated scf accuracy    <       0.00003850 Ry

     total magnetization       =    -0.00 Bohr mag/cell
     absolute magnetization    =    14.53 Bohr mag/cell

     End of self-consistent calculation

     convergence NOT achieved after 400 iterations: stopping

     Writing output data file mn-10.save/

     init_run     :      0.59s CPU      0.61s WALL (       1 calls)
     electrons    :    641.70s CPU    663.97s WALL (       1 calls)

     Called by init_run:
     wfcinit      :      0.40s CPU      0.41s WALL (       1 calls)
     potinit      :      0.02s CPU      0.02s WALL (       1 calls)
     hinit0       :      0.13s CPU      0.14s WALL (       1 calls)

     Called by electrons:
     c_bands      :    548.86s CPU    567.64s WALL (     400 calls)
     sum_band     :     79.42s CPU     82.76s WALL (     400 calls)
     v_of_rho     :      4.13s CPU      4.20s WALL (     401 calls)
     newd         :      7.80s CPU      7.86s WALL (     401 calls)
     mix_rho      :      1.33s CPU      1.34s WALL (     400 calls)

     Called by c_bands:
     init_us_2    :      5.32s CPU      5.51s WALL (   32040 calls)
     cegterg      :    526.88s CPU    545.31s WALL (   16000 calls)

     Called by sum_band:
     sum_band:bec :      0.30s CPU      0.32s WALL (   16000 calls)
     addusdens    :     12.53s CPU     12.57s WALL (     400 calls)

     Called by *egterg:
     h_psi        :    333.08s CPU    347.17s WALL (   63536 calls)
     s_psi        :     21.56s CPU     22.50s WALL (   63536 calls)
     g_psi        :      2.13s CPU      2.16s WALL (   47496 calls)
     cdiaghg      :     47.48s CPU     48.31s WALL (   63496 calls)

     Called by h_psi:
     h_psi:pot    :    332.13s CPU    346.21s WALL (   63536 calls)
     h_psi:calbec :     30.54s CPU     32.16s WALL (   63536 calls)
     vloc_psi     :    279.81s CPU    291.19s WALL (   63536 calls)
     add_vuspsi   :     21.64s CPU     22.72s WALL (   63536 calls)

     General routines
     calbec       :     41.41s CPU     43.57s WALL (   79536 calls)
     fft          :      2.27s CPU      2.31s WALL (    8421 calls)
     ffts         :      0.20s CPU      0.21s WALL (     800 calls)
     fftw         :    306.07s CPU    318.99s WALL ( 2024984 calls)
     davcio       :      0.00s CPU      0.00s WALL (      58 calls)

     Parallel routines
     fft_scatt_xy :     19.24s CPU     20.05s WALL ( 2034205 calls)
     fft_scatt_yz :    135.02s CPU    140.52s WALL ( 2034205 calls)

     PWSCF        :  10m43.70s CPU  11m 6.01s WALL


   This run was terminated on:  12:29:39  17Mar2022            

=------------------------------------------------------------------------------=
   JOB DONE.
=------------------------------------------------------------------------------=
