
     Program PWSCF v.6.4.1 starts on 17Mar2022 at 12:30:49 

     This program is part of the open-source Quantum ESPRESSO suite
     for quantum simulation of materials; please cite
         "P. Giannozzi et al., J. Phys.:Condens. Matter 21 395502 (2009);
         "P. Giannozzi et al., J. Phys.:Condens. Matter 29 465901 (2017);
          URL http://www.quantum-espresso.org", 
     in publications or presentations arising from this work. More details at
     http://www.quantum-espresso.org/quote

     Parallel version (MPI), running on     6 processors

     MPI processes distributed on     1 nodes
     R & G space division:  proc/nbgrp/npool/nimage =       6
     Reading input from mn-20.in

     Current dimensions of program PWSCF are:
     Max number of different atomic species (ntypx) = 10
     Max number of k-points (npk) =  40000
     Max angular momentum in pseudopotentials (lmaxx) =  3
               file Mn.pbe-spn-rrkjus_psl.0.3.1.UPF: wavefunction(s)  3D renormalized
               file Mn.pbe-spn-rrkjus_psl.0.3.1.UPF: wavefunction(s)  3D renormalized

     Subspace diagonalization in iterative solution of the eigenvalue problem:
     a serial algorithm will be used

     Message from routine setup:
     DEPRECATED: symmetry with ibrav=0, use correct ibrav instead

     Parallelization info
     --------------------
     sticks:   dense  smooth     PW     G-vecs:    dense   smooth      PW
     Min         298     298     84                 9624     9624    1451
     Max         299     299     85                 9627     9627    1453
     Sum        1789    1789    509                57747    57747    8709



     bravais-lattice index     =            0
     lattice parameter (alat)  =      16.8375  a.u.
     unit-cell volume          =    4773.4208 (a.u.)^3
     number of atoms/cell      =            2
     number of atomic types    =            2
     number of electrons       =        30.00
     number of Kohn-Sham states=           19
     kinetic-energy cutoff     =      20.0000  Ry
     charge density cutoff     =      80.0000  Ry
     convergence threshold     =      1.0E-06
     mixing beta               =       0.7000
     number of iterations used =            8  plain     mixing
     Exchange-correlation      = PBE ( 1  4  3  4 0 0)

     celldm(1)=  16.837460  celldm(2)=   0.000000  celldm(3)=   0.000000
     celldm(4)=   0.000000  celldm(5)=   0.000000  celldm(6)=   0.000000

     crystal axes: (cart. coord. in units of alat)
               a(1) = (   1.000000   0.000000   0.000000 )  
               a(2) = (   0.000000   1.000000   0.000000 )  
               a(3) = (   0.000000   0.000000   1.000000 )  

     reciprocal axes: (cart. coord. in units 2 pi/alat)
               b(1) = (  1.000000  0.000000  0.000000 )  
               b(2) = (  0.000000  1.000000  0.000000 )  
               b(3) = (  0.000000  0.000000  1.000000 )  


     PseudoPot. # 1 for Mn read from file:
     /home/cristian/Escritorio/Proyecto_Grafeno/pseudopotenciales/Mn.pbe-spn-rrkjus_psl.0.3.1.UPF
     MD5 check sum: e1cac159bdd2ba70c18e85765a5d4279
     Pseudo is Ultrasoft + core correction, Zval = 15.0
     Generated using "atomic" code by A. Dal Corso v.6.2.2
     Using radial grid of 1187 points,  6 beta functions with: 
                l(1) =   0
                l(2) =   0
                l(3) =   1
                l(4) =   1
                l(5) =   2
                l(6) =   2
     Q(r) pseudized with 0 coefficients 


     PseudoPot. # 2 for Mn read from file:
     /home/cristian/Escritorio/Proyecto_Grafeno/pseudopotenciales/Mn.pbe-spn-rrkjus_psl.0.3.1.UPF
     MD5 check sum: e1cac159bdd2ba70c18e85765a5d4279
     Pseudo is Ultrasoft + core correction, Zval = 15.0
     Generated using "atomic" code by A. Dal Corso v.6.2.2
     Using radial grid of 1187 points,  6 beta functions with: 
                l(1) =   0
                l(2) =   0
                l(3) =   1
                l(4) =   1
                l(5) =   2
                l(6) =   2
     Q(r) pseudized with 0 coefficients 


     atomic species   valence    mass     pseudopotential
        Mn1           15.00    54.93804     Mn( 1.00)
        Mn2           15.00    54.93804     Mn( 1.00)

     Starting magnetic structure 
     atomic species   magnetization
        Mn1          0.100
        Mn2         -0.100

     48 Sym. Ops., with inversion, found



   Cartesian axes

     site n.     atom                  positions (alat units)
         1           Mn1 tau(   1) = (   0.0000000   0.0000000   0.0000000  )
         2           Mn2 tau(   2) = (   0.5000000   0.5000000   0.5000000  )

     number of k points=    20  Methfessel-Paxton smearing, width (Ry)=  0.0300
                       cart. coord. in units 2pi/alat
        k(    1) = (   0.0625000   0.0625000   0.0625000), wk =   0.0156250
        k(    2) = (   0.0625000   0.0625000   0.1875000), wk =   0.0468750
        k(    3) = (   0.0625000   0.0625000   0.3125000), wk =   0.0468750
        k(    4) = (   0.0625000   0.0625000   0.4375000), wk =   0.0468750
        k(    5) = (   0.0625000   0.1875000   0.1875000), wk =   0.0468750
        k(    6) = (   0.0625000   0.1875000   0.3125000), wk =   0.0937500
        k(    7) = (   0.0625000   0.1875000   0.4375000), wk =   0.0937500
        k(    8) = (   0.0625000   0.3125000   0.3125000), wk =   0.0468750
        k(    9) = (   0.0625000   0.3125000   0.4375000), wk =   0.0937500
        k(   10) = (   0.0625000   0.4375000   0.4375000), wk =   0.0468750
        k(   11) = (   0.1875000   0.1875000   0.1875000), wk =   0.0156250
        k(   12) = (   0.1875000   0.1875000   0.3125000), wk =   0.0468750
        k(   13) = (   0.1875000   0.1875000   0.4375000), wk =   0.0468750
        k(   14) = (   0.1875000   0.3125000   0.3125000), wk =   0.0468750
        k(   15) = (   0.1875000   0.3125000   0.4375000), wk =   0.0937500
        k(   16) = (   0.1875000   0.4375000   0.4375000), wk =   0.0468750
        k(   17) = (   0.3125000   0.3125000   0.3125000), wk =   0.0156250
        k(   18) = (   0.3125000   0.3125000   0.4375000), wk =   0.0468750
        k(   19) = (   0.3125000   0.4375000   0.4375000), wk =   0.0468750
        k(   20) = (   0.4375000   0.4375000   0.4375000), wk =   0.0156250

     Dense  grid:    57747 G-vectors     FFT dimensions: (  48,  48,  48)

     Estimated max dynamical RAM per process >      55.59 MB

     Estimated total dynamical RAM >     333.54 MB
     Generating pointlists ...
     new r_m :   0.3572 (alat units)  6.0149 (a.u.) for type    1
     new r_m :   0.3572 (alat units)  6.0149 (a.u.) for type    2

     Check: negative core charge=   -0.001015

     Initial potential from superposition of free atoms

     starting charge   29.99900, renormalised to   30.00000

     negative rho (up, down):  1.650E-02 1.020E-02
     Starting wfcs are   20 randomized atomic wfcs

     total cpu time spent up to now is        2.8 secs

     Self-consistent Calculation

     iteration #  1     ecut=    20.00 Ry     beta= 0.70
     Davidson diagonalization with overlap
     ethr =  1.00E-02,  avg # of iterations =  3.0

     negative rho (up, down):  3.367E-03 4.561E-02

     total cpu time spent up to now is        6.0 secs

     total energy              =    -421.56284863 Ry
     Harris-Foulkes estimate   =    -424.10011443 Ry
     estimated scf accuracy    <       3.43454116 Ry

     total magnetization       =    -0.00 Bohr mag/cell
     absolute magnetization    =    10.36 Bohr mag/cell

     iteration #  2     ecut=    20.00 Ry     beta= 0.70
     Davidson diagonalization with overlap
     ethr =  1.00E-02,  avg # of iterations =  2.0

     negative rho (up, down):  1.132E-02 3.834E-02

     total cpu time spent up to now is        9.3 secs

     total energy              =    -422.39267738 Ry
     Harris-Foulkes estimate   =    -425.78833838 Ry
     estimated scf accuracy    <       7.85195835 Ry

     total magnetization       =     0.00 Bohr mag/cell
     absolute magnetization    =     6.07 Bohr mag/cell

     iteration #  3     ecut=    20.00 Ry     beta= 0.70
     Davidson diagonalization with overlap
     ethr =  1.00E-02,  avg # of iterations =  2.0

     negative rho (up, down):  1.481E-02 3.302E-02

     total cpu time spent up to now is       12.2 secs

     total energy              =    -423.41666876 Ry
     Harris-Foulkes estimate   =    -423.35911288 Ry
     estimated scf accuracy    <       0.14615377 Ry

     total magnetization       =    -0.00 Bohr mag/cell
     absolute magnetization    =    10.17 Bohr mag/cell

     iteration #  4     ecut=    20.00 Ry     beta= 0.70
     Davidson diagonalization with overlap
     ethr =  4.87E-04,  avg # of iterations =  2.0

     negative rho (up, down):  1.116E-02 3.085E-02

     total cpu time spent up to now is       15.1 secs

     total energy              =    -423.44811875 Ry
     Harris-Foulkes estimate   =    -423.43355920 Ry
     estimated scf accuracy    <       0.01728776 Ry

     total magnetization       =     0.04 Bohr mag/cell
     absolute magnetization    =    10.20 Bohr mag/cell

     iteration #  5     ecut=    20.00 Ry     beta= 0.70
     Davidson diagonalization with overlap
     ethr =  5.76E-05,  avg # of iterations =  3.0

     negative rho (up, down):  1.117E-02 3.123E-02

     total cpu time spent up to now is       18.3 secs

     total energy              =    -423.45415680 Ry
     Harris-Foulkes estimate   =    -423.45502684 Ry
     estimated scf accuracy    <       0.00136126 Ry

     total magnetization       =     0.04 Bohr mag/cell
     absolute magnetization    =    10.27 Bohr mag/cell

     iteration #  6     ecut=    20.00 Ry     beta= 0.70
     Davidson diagonalization with overlap
     ethr =  4.54E-06,  avg # of iterations =  5.5

     negative rho (up, down):  1.116E-02 3.107E-02

     total cpu time spent up to now is       22.3 secs

     total energy              =    -423.45230742 Ry
     Harris-Foulkes estimate   =    -423.45328796 Ry
     estimated scf accuracy    <       0.01792693 Ry

     total magnetization       =    -0.22 Bohr mag/cell
     absolute magnetization    =    10.26 Bohr mag/cell

     iteration #  7     ecut=    20.00 Ry     beta= 0.70
     Davidson diagonalization with overlap
     ethr =  4.54E-06,  avg # of iterations =  1.3

     negative rho (up, down):  1.109E-02 3.172E-02

     total cpu time spent up to now is       24.7 secs

     total energy              =    -423.45110915 Ry
     Harris-Foulkes estimate   =    -423.45226247 Ry
     estimated scf accuracy    <       0.01797935 Ry

     total magnetization       =    -0.24 Bohr mag/cell
     absolute magnetization    =    10.26 Bohr mag/cell

     iteration #  8     ecut=    20.00 Ry     beta= 0.70
     Davidson diagonalization with overlap
     ethr =  4.54E-06,  avg # of iterations =  2.5

     negative rho (up, down):  1.128E-02 3.194E-02

     total cpu time spent up to now is       27.3 secs

     total energy              =    -423.45182375 Ry
     Harris-Foulkes estimate   =    -423.45182506 Ry
     estimated scf accuracy    <       0.00014306 Ry

     total magnetization       =     0.01 Bohr mag/cell
     absolute magnetization    =    10.26 Bohr mag/cell

     iteration #  9     ecut=    20.00 Ry     beta= 0.70
     Davidson diagonalization with overlap
     ethr =  4.77E-07,  avg # of iterations =  5.0

     negative rho (up, down):  1.115E-02 3.237E-02

     total cpu time spent up to now is       30.5 secs

     total energy              =    -423.45074839 Ry
     Harris-Foulkes estimate   =    -423.45233811 Ry
     estimated scf accuracy    <       0.01130017 Ry

     total magnetization       =    -0.19 Bohr mag/cell
     absolute magnetization    =    10.26 Bohr mag/cell

     iteration # 10     ecut=    20.00 Ry     beta= 0.70
     Davidson diagonalization with overlap
     ethr =  4.77E-07,  avg # of iterations =  5.8

     negative rho (up, down):  1.109E-02 3.259E-02

     total cpu time spent up to now is       33.9 secs

     total energy              =    -423.45170947 Ry
     Harris-Foulkes estimate   =    -423.45115573 Ry
     estimated scf accuracy    <       0.00004086 Ry

     total magnetization       =    -0.01 Bohr mag/cell
     absolute magnetization    =    10.26 Bohr mag/cell

     iteration # 11     ecut=    20.00 Ry     beta= 0.70
     Davidson diagonalization with overlap
     ethr =  1.36E-07,  avg # of iterations =  4.8

     negative rho (up, down):  1.090E-02 3.237E-02

     total cpu time spent up to now is       36.8 secs

     total energy              =    -423.45224009 Ry
     Harris-Foulkes estimate   =    -423.45173789 Ry
     estimated scf accuracy    <       0.00085901 Ry

     total magnetization       =    -0.05 Bohr mag/cell
     absolute magnetization    =    10.26 Bohr mag/cell

     iteration # 12     ecut=    20.00 Ry     beta= 0.70
     Davidson diagonalization with overlap
     ethr =  1.36E-07,  avg # of iterations =  3.0

     negative rho (up, down):  1.092E-02 3.215E-02

     total cpu time spent up to now is       39.7 secs

     total energy              =    -423.45131721 Ry
     Harris-Foulkes estimate   =    -423.45227621 Ry
     estimated scf accuracy    <       0.00338115 Ry

     total magnetization       =    -0.11 Bohr mag/cell
     absolute magnetization    =    10.26 Bohr mag/cell

     iteration # 13     ecut=    20.00 Ry     beta= 0.70
     Davidson diagonalization with overlap
     ethr =  1.36E-07,  avg # of iterations =  4.7

     negative rho (up, down):  1.088E-02 3.237E-02

     total cpu time spent up to now is       42.9 secs

     total energy              =    -423.45204831 Ry
     Harris-Foulkes estimate   =    -423.45160546 Ry
     estimated scf accuracy    <       0.00085895 Ry

     total magnetization       =     0.05 Bohr mag/cell
     absolute magnetization    =    10.27 Bohr mag/cell

     iteration # 14     ecut=    20.00 Ry     beta= 0.70
     Davidson diagonalization with overlap
     ethr =  1.36E-07,  avg # of iterations =  4.4

     negative rho (up, down):  1.088E-02 3.237E-02

     total cpu time spent up to now is       46.0 secs

     total energy              =    -423.45209433 Ry
     Harris-Foulkes estimate   =    -423.45212874 Ry
     estimated scf accuracy    <       0.00021034 Ry

     total magnetization       =    -0.03 Bohr mag/cell
     absolute magnetization    =    10.26 Bohr mag/cell

     iteration # 15     ecut=    20.00 Ry     beta= 0.70
     Davidson diagonalization with overlap
     ethr =  1.36E-07,  avg # of iterations =  2.0

     negative rho (up, down):  1.087E-02 3.237E-02

     total cpu time spent up to now is       48.5 secs

     total energy              =    -423.45210804 Ry
     Harris-Foulkes estimate   =    -423.45210443 Ry
     estimated scf accuracy    <       0.00000565 Ry

     total magnetization       =     0.00 Bohr mag/cell
     absolute magnetization    =    10.26 Bohr mag/cell

     iteration # 16     ecut=    20.00 Ry     beta= 0.70
     Davidson diagonalization with overlap
     ethr =  1.88E-08,  avg # of iterations =  3.0

     negative rho (up, down):  1.092E-02 3.281E-02

     Magnetic moment per site:
     atom:    1    charge:   14.9157    magn:    5.0157    constr:    0.0000
     atom:    2    charge:   14.9155    magn:   -5.0159    constr:    0.0000

     total cpu time spent up to now is       51.1 secs

     End of self-consistent calculation

 ------ SPIN UP ------------


          k = 0.0625 0.0625 0.0625 (  7162 PWs)   bands (ev):

   -96.1108 -91.6275 -64.1195 -64.1175 -64.1175 -59.4692 -59.4669 -59.4669
    -7.7069  -7.7069  -7.7042  -7.5189  -7.5189  -5.4004  -4.5533  -3.1516
    -3.1499  -3.1458  -3.0593

          k = 0.0625 0.0625 0.1875 (  7174 PWs)   bands (ev):

   -96.1112 -91.6282 -64.1209 -64.1184 -64.1175 -59.4710 -59.4679 -59.4669
    -7.7401  -7.7117  -7.6944  -7.6155  -7.5288  -5.3958  -4.5523  -3.1814
    -3.1749  -3.1476  -3.1079

          k = 0.0625 0.0625 0.3125 (  7200 PWs)   bands (ev):

   -96.1125 -91.6300 -64.1235 -64.1205 -64.1191 -59.4742 -59.4706 -59.4689
    -7.8161  -7.7963  -7.7205  -7.6687  -7.5993  -5.3891  -4.5550  -3.2467
    -3.2263  -3.2153  -3.1421

          k = 0.0625 0.0625 0.4375 (  7198 PWs)   bands (ev):

   -96.1123 -91.6298 -64.1246 -64.1193 -64.1182 -59.4755 -59.4691 -59.4678
    -7.8179  -7.7743  -7.7337  -7.6645  -7.5778  -5.3813  -4.5552  -3.2559
    -3.2506  -3.2095  -3.1215

          k = 0.0625 0.1875 0.1875 (  7196 PWs)   bands (ev):

   -96.1123 -91.6297 -64.1217 -64.1203 -64.1200 -59.4720 -59.4703 -59.4699
    -7.7722  -7.7615  -7.7399  -7.6784  -7.5951  -5.3924  -4.5517  -3.2163
    -3.2058  -3.1974  -3.1790

          k = 0.0625 0.1875 0.3125 (  7203 PWs)   bands (ev):

   -96.1126 -91.6302 -64.1223 -64.1216 -64.1198 -59.4727 -59.4719 -59.4697
    -7.7981  -7.7828  -7.7278  -7.7026  -7.6213  -5.3843  -4.5485  -3.2827
    -3.2185  -3.1960  -3.1548

          k = 0.0625 0.1875 0.4375 (  7217 PWs)   bands (ev):

   -96.1133 -91.6313 -64.1242 -64.1224 -64.1205 -59.4750 -59.4729 -59.4706
    -7.8156  -7.7912  -7.7775  -7.7406  -7.6759  -5.3800  -4.5470  -3.3157
    -3.2343  -3.2174  -3.2023

          k = 0.0625 0.3125 0.3125 (  7212 PWs)   bands (ev):

   -96.1131 -91.6308 -64.1237 -64.1220 -64.1201 -59.4745 -59.4723 -59.4700
    -7.8164  -7.7718  -7.7569  -7.7433  -7.6484  -5.3781  -4.5397  -3.3262
    -3.2202  -3.2021  -3.1934

          k = 0.0625 0.3125 0.4375 (  7220 PWs)   bands (ev):

   -96.1135 -91.6315 -64.1244 -64.1229 -64.1206 -59.4752 -59.4735 -59.4707
    -7.8497  -7.8131  -7.7833  -7.7444  -7.6506  -5.3744  -4.5331  -3.3494
    -3.2465  -3.2382  -3.1891

          k = 0.0625 0.4375 0.4375 (  7217 PWs)   bands (ev):

   -96.1134 -91.6313 -64.1240 -64.1220 -64.1215 -59.4748 -59.4723 -59.4717
    -7.8634  -7.8070  -7.7935  -7.7062  -7.6381  -5.3694  -4.5230  -3.3606
    -3.2379  -3.2278  -3.2124

          k = 0.1875 0.1875 0.1875 (  7202 PWs)   bands (ev):

   -96.1126 -91.6302 -64.1243 -64.1196 -64.1196 -59.4752 -59.4695 -59.4695
    -7.7964  -7.7964  -7.7407  -7.6440  -7.6440  -5.3874  -4.5477  -3.2818
    -3.2818  -3.1785  -3.1239

          k = 0.1875 0.1875 0.3125 (  7199 PWs)   bands (ev):

   -96.1124 -91.6299 -64.1232 -64.1210 -64.1184 -59.4738 -59.4711 -59.4680
    -7.8055  -7.7543  -7.6946  -7.6728  -7.6561  -5.3787  -4.5410  -3.3044
    -3.2119  -3.1932  -3.1287

          k = 0.1875 0.1875 0.4375 (  7231 PWs)   bands (ev):

   -96.1141 -91.6324 -64.1250 -64.1245 -64.1214 -59.4760 -59.4755 -59.4716
    -7.8571  -7.8310  -7.7920  -7.7550  -7.7401  -5.3778  -4.5393  -3.3419
    -3.2775  -3.2571  -3.2268

          k = 0.1875 0.3125 0.3125 (  7220 PWs)   bands (ev):

   -96.1135 -91.6315 -64.1238 -64.1230 -64.1213 -59.4745 -59.4736 -59.4715
    -7.8195  -7.7827  -7.7712  -7.7445  -7.7245  -5.3751  -4.5323  -3.3298
    -3.2541  -3.2088  -3.2060

          k = 0.1875 0.3125 0.4375 (  7218 PWs)   bands (ev):

   -96.1134 -91.6314 -64.1242 -64.1221 -64.1213 -59.4750 -59.4725 -59.4715
    -7.8255  -7.8061  -7.7750  -7.7403  -7.6709  -5.3699  -4.5247  -3.3295
    -3.2640  -3.2337  -3.1835

          k = 0.1875 0.4375 0.4375 (  7206 PWs)   bands (ev):

   -96.1128 -91.6305 -64.1231 -64.1217 -64.1199 -59.4736 -59.4719 -59.4699
    -7.8454  -7.7633  -7.6987  -7.6841  -7.6824  -5.3638  -4.5138  -3.3486
    -3.2307  -3.1765  -3.1432

          k = 0.3125 0.3125 0.3125 (  7208 PWs)   bands (ev):

   -96.1129 -91.6307 -64.1242 -64.1205 -64.1205 -59.4750 -59.4705 -59.4705
    -7.7878  -7.7694  -7.7694  -7.6878  -7.6878  -5.3674  -4.5196  -3.2783
    -3.2783  -3.2160  -3.1412

          k = 0.3125 0.3125 0.4375 (  7213 PWs)   bands (ev):

   -96.1132 -91.6310 -64.1234 -64.1219 -64.1210 -59.4741 -59.4722 -59.4712
    -7.8109  -7.7995  -7.7308  -7.7274  -7.6889  -5.3634  -4.5119  -3.3122
    -3.2861  -3.2005  -3.1747

          k = 0.3125 0.4375 0.4375 (  7220 PWs)   bands (ev):

   -96.1135 -91.6315 -64.1234 -64.1229 -64.1216 -59.4741 -59.4734 -59.4719
    -7.8384  -7.8167  -7.7698  -7.7342  -7.6747  -5.3600  -4.5037  -3.3429
    -3.3250  -3.2124  -3.1823

          k = 0.4375 0.4375 0.4375 (  7223 PWs)   bands (ev):

   -96.1136 -91.6316 -64.1239 -64.1221 -64.1221 -59.4747 -59.4725 -59.4725
    -7.8300  -7.8300  -7.7587  -7.7234  -7.7234  -5.3563  -4.4953  -3.3341
    -3.3341  -3.2038  -3.1757

 ------ SPIN DOWN ----------


          k = 0.0625 0.0625 0.0625 (  7162 PWs)   bands (ev):

   -96.1093 -91.6292 -64.1180 -64.1161 -64.1161 -59.4710 -59.4687 -59.4687
    -7.7059  -7.7059  -7.7033  -7.5163  -7.5163  -5.3993  -4.5519  -3.1540
    -3.1534  -3.1486  -3.0577

          k = 0.0625 0.0625 0.1875 (  7174 PWs)   bands (ev):

   -96.1098 -91.6299 -64.1194 -64.1169 -64.1161 -59.4728 -59.4697 -59.4687
    -7.7392  -7.7108  -7.6931  -7.6132  -7.5261  -5.3947  -4.5508  -3.1804
    -3.1780  -3.1505  -3.1100

          k = 0.0625 0.0625 0.3125 (  7200 PWs)   bands (ev):

   -96.1111 -91.6318 -64.1220 -64.1191 -64.1177 -59.4759 -59.4723 -59.4706
    -7.8153  -7.7954  -7.7192  -7.6665  -7.5967  -5.3880  -4.5535  -3.2495
    -3.2296  -3.2137  -3.1446

          k = 0.0625 0.0625 0.4375 (  7198 PWs)   bands (ev):

   -96.1109 -91.6315 -64.1231 -64.1179 -64.1168 -59.4773 -59.4709 -59.4696
    -7.8170  -7.7734  -7.7311  -7.6636  -7.5751  -5.3802  -4.5537  -3.2540
    -3.2533  -3.2123  -3.1196

          k = 0.0625 0.1875 0.1875 (  7196 PWs)   bands (ev):

   -96.1108 -91.6314 -64.1202 -64.1188 -64.1185 -59.4738 -59.4720 -59.4717
    -7.7713  -7.7605  -7.7390  -7.6758  -7.5926  -5.3912  -4.5503  -3.2162
    -3.2110  -3.1984  -3.1823

          k = 0.0625 0.1875 0.3125 (  7203 PWs)   bands (ev):

   -96.1112 -91.6319 -64.1208 -64.1201 -64.1183 -59.4745 -59.4736 -59.4715
    -7.7966  -7.7819  -7.7258  -7.7016  -7.6187  -5.3831  -4.5470  -3.2813
    -3.2210  -3.1978  -3.1499

          k = 0.0625 0.1875 0.4375 (  7217 PWs)   bands (ev):

   -96.1119 -91.6330 -64.1227 -64.1209 -64.1190 -59.4768 -59.4746 -59.4723
    -7.8138  -7.7895  -7.7765  -7.7397  -7.6733  -5.3788  -4.5455  -3.3139
    -3.2365  -3.2192  -3.2019

          k = 0.0625 0.3125 0.3125 (  7212 PWs)   bands (ev):

   -96.1116 -91.6326 -64.1222 -64.1205 -64.1186 -59.4762 -59.4741 -59.4718
    -7.8138  -7.7708  -7.7560  -7.7421  -7.6461  -5.3769  -4.5382  -3.3244
    -3.2233  -3.2052  -3.1962

          k = 0.0625 0.3125 0.4375 (  7220 PWs)   bands (ev):

   -96.1120 -91.6332 -64.1229 -64.1214 -64.1191 -59.4770 -59.4752 -59.4724
    -7.8475  -7.8118  -7.7822  -7.7433  -7.6483  -5.3732  -4.5316  -3.3476
    -3.2493  -3.2411  -3.1923

          k = 0.0625 0.4375 0.4375 (  7217 PWs)   bands (ev):

   -96.1120 -91.6331 -64.1226 -64.1205 -64.1200 -59.4766 -59.4741 -59.4734
    -7.8611  -7.8062  -7.7923  -7.7042  -7.6366  -5.3682  -4.5215  -3.3589
    -3.2407  -3.2305  -3.2161

          k = 0.1875 0.1875 0.1875 (  7202 PWs)   bands (ev):

   -96.1112 -91.6319 -64.1228 -64.1182 -64.1182 -59.4769 -59.4712 -59.4712
    -7.7947  -7.7947  -7.7398  -7.6422  -7.6422  -5.3862  -4.5462  -3.2810
    -3.2810  -3.1814  -3.1256

          k = 0.1875 0.1875 0.3125 (  7199 PWs)   bands (ev):

   -96.1110 -91.6316 -64.1217 -64.1195 -64.1169 -59.4756 -59.4729 -59.4697
    -7.8033  -7.7534  -7.6929  -7.6709  -7.6548  -5.3775  -4.5395  -3.3030
    -3.2100  -3.1960  -3.1314

          k = 0.1875 0.1875 0.4375 (  7231 PWs)   bands (ev):

   -96.1127 -91.6341 -64.1235 -64.1231 -64.1199 -59.4778 -59.4772 -59.4733
    -7.8551  -7.8301  -7.7911  -7.7524  -7.7385  -5.3766  -4.5378  -3.3407
    -3.2756  -3.2599  -3.2296

          k = 0.1875 0.3125 0.3125 (  7220 PWs)   bands (ev):

   -96.1121 -91.6332 -64.1223 -64.1215 -64.1198 -59.4763 -59.4754 -59.4732
    -7.8169  -7.7817  -7.7703  -7.7436  -7.7220  -5.3740  -4.5309  -3.3279
    -3.2525  -3.2113  -3.2087

          k = 0.1875 0.3125 0.4375 (  7218 PWs)   bands (ev):

   -96.1120 -91.6331 -64.1227 -64.1206 -64.1198 -59.4767 -59.4743 -59.4733
    -7.8231  -7.8051  -7.7734  -7.7393  -7.6690  -5.3688  -4.5232  -3.3277
    -3.2634  -3.2363  -3.1860

          k = 0.1875 0.4375 0.4375 (  7206 PWs)   bands (ev):

   -96.1114 -91.6322 -64.1216 -64.1202 -64.1185 -59.4754 -59.4737 -59.4716
    -7.8428  -7.7622  -7.6978  -7.6830  -7.6802  -5.3626  -4.5123  -3.3467
    -3.2304  -3.1784  -3.1460

          k = 0.3125 0.3125 0.3125 (  7208 PWs)   bands (ev):

   -96.1115 -91.6324 -64.1227 -64.1190 -64.1190 -59.4768 -59.4723 -59.4723
    -7.7869  -7.7670  -7.7670  -7.6866  -7.6866  -5.3662  -4.5181  -3.2766
    -3.2766  -3.2188  -3.1438

          k = 0.3125 0.3125 0.4375 (  7213 PWs)   bands (ev):

   -96.1117 -91.6327 -64.1219 -64.1204 -64.1196 -59.4758 -59.4740 -59.4729
    -7.8085  -7.7979  -7.7298  -7.7254  -7.6878  -5.3622  -4.5104  -3.3105
    -3.2850  -3.2025  -3.1774

          k = 0.3125 0.4375 0.4375 (  7220 PWs)   bands (ev):

   -96.1120 -91.6332 -64.1219 -64.1214 -64.1201 -59.4758 -59.4752 -59.4736
    -7.8358  -7.8141  -7.7689  -7.7333  -7.6738  -5.3588  -4.5022  -3.3411
    -3.3231  -3.2152  -3.1851

          k = 0.4375 0.4375 0.4375 (  7223 PWs)   bands (ev):

   -96.1121 -91.6333 -64.1225 -64.1206 -64.1206 -59.4765 -59.4743 -59.4743
    -7.8274  -7.8274  -7.7578  -7.7225  -7.7225  -5.3551  -4.4937  -3.3323
    -3.3323  -3.2066  -3.1784

     the Fermi energy is    -3.5946 ev

!    total energy              =    -423.45242302 Ry
     Harris-Foulkes estimate   =    -423.45210633 Ry
     estimated scf accuracy    <       0.00000064 Ry

     The total energy is the sum of the following terms:

     one-electron contribution =    -514.39683340 Ry
     hartree contribution      =     242.16856176 Ry
     xc contribution           =     -53.96959350 Ry
     ewald contribution        =     -97.26259588 Ry
     smearing contrib. (-TS)   =       0.00803801 Ry

     total magnetization       =    -0.00 Bohr mag/cell
     absolute magnetization    =    10.26 Bohr mag/cell

     convergence has been achieved in  16 iterations

     Writing output data file mn-20.save/

     init_run     :      1.27s CPU      1.33s WALL (       1 calls)
     electrons    :     47.17s CPU     48.30s WALL (       1 calls)

     Called by init_run:
     wfcinit      :      0.86s CPU      0.89s WALL (       1 calls)
     potinit      :      0.08s CPU      0.08s WALL (       1 calls)
     hinit0       :      0.22s CPU      0.23s WALL (       1 calls)

     Called by electrons:
     c_bands      :     39.07s CPU     39.94s WALL (      16 calls)
     sum_band     :      6.64s CPU      6.84s WALL (      16 calls)
     v_of_rho     :      0.40s CPU      0.40s WALL (      17 calls)
     newd         :      0.97s CPU      1.02s WALL (      17 calls)
     mix_rho      :      0.14s CPU      0.15s WALL (      16 calls)

     Called by c_bands:
     init_us_2    :      0.61s CPU      0.63s WALL (    1320 calls)
     cegterg      :     36.73s CPU     37.57s WALL (     640 calls)

     Called by sum_band:
     sum_band:bec :      0.01s CPU      0.01s WALL (     640 calls)
     addusdens    :      1.58s CPU      1.61s WALL (      16 calls)

     Called by *egterg:
     h_psi        :     22.39s CPU     23.16s WALL (    2835 calls)
     s_psi        :      2.15s CPU      2.16s WALL (    2835 calls)
     g_psi        :      0.20s CPU      0.20s WALL (    2155 calls)
     cdiaghg      :      2.00s CPU      2.02s WALL (    2795 calls)

     Called by h_psi:
     h_psi:pot    :     22.28s CPU     23.05s WALL (    2835 calls)
     h_psi:calbec :      3.17s CPU      3.27s WALL (    2835 calls)
     vloc_psi     :     16.89s CPU     17.53s WALL (    2835 calls)
     add_vuspsi   :      2.20s CPU      2.24s WALL (    2835 calls)

     General routines
     calbec       :      4.34s CPU      4.49s WALL (    3475 calls)
     fft          :      0.19s CPU      0.20s WALL (     355 calls)
     ffts         :      0.02s CPU      0.02s WALL (      32 calls)
     fftw         :     18.05s CPU     18.72s WALL (   74464 calls)

     Parallel routines
     fft_scatt_xy :      1.88s CPU      1.95s WALL (   74851 calls)
     fft_scatt_yz :      8.97s CPU      9.31s WALL (   74851 calls)

     PWSCF        :     49.95s CPU     51.23s WALL


   This run was terminated on:  12:31:40  17Mar2022            

=------------------------------------------------------------------------------=
   JOB DONE.
=------------------------------------------------------------------------------=
