
     Program PWSCF v.6.4.1 starts on 17Mar2022 at 13:48:36 

     This program is part of the open-source Quantum ESPRESSO suite
     for quantum simulation of materials; please cite
         "P. Giannozzi et al., J. Phys.:Condens. Matter 21 395502 (2009);
         "P. Giannozzi et al., J. Phys.:Condens. Matter 29 465901 (2017);
          URL http://www.quantum-espresso.org", 
     in publications or presentations arising from this work. More details at
     http://www.quantum-espresso.org/quote

     Parallel version (MPI), running on     6 processors

     MPI processes distributed on     1 nodes
     R & G space division:  proc/nbgrp/npool/nimage =       6
     Reading input from mn-65.in

     Current dimensions of program PWSCF are:
     Max number of different atomic species (ntypx) = 10
     Max number of k-points (npk) =  40000
     Max angular momentum in pseudopotentials (lmaxx) =  3
               file Mn.pbe-spn-rrkjus_psl.0.3.1.UPF: wavefunction(s)  3D renormalized
               file Mn.pbe-spn-rrkjus_psl.0.3.1.UPF: wavefunction(s)  3D renormalized

     Subspace diagonalization in iterative solution of the eigenvalue problem:
     a serial algorithm will be used

     Message from routine setup:
     DEPRECATED: symmetry with ibrav=0, use correct ibrav instead

     Parallelization info
     --------------------
     sticks:   dense  smooth     PW     G-vecs:    dense   smooth      PW
     Min         979     979    262                56349    56349    7816
     Max         980     980    266                56352    56352    7817
     Sum        5877    5877   1581               338107   338107   46897



     bravais-lattice index     =            0
     lattice parameter (alat)  =      16.8375  a.u.
     unit-cell volume          =    4773.4208 (a.u.)^3
     number of atoms/cell      =            2
     number of atomic types    =            2
     number of electrons       =        30.00
     number of Kohn-Sham states=           19
     kinetic-energy cutoff     =      65.0000  Ry
     charge density cutoff     =     260.0000  Ry
     convergence threshold     =      1.0E-06
     mixing beta               =       0.7000
     number of iterations used =            8  plain     mixing
     Exchange-correlation      = PBE ( 1  4  3  4 0 0)

     celldm(1)=  16.837460  celldm(2)=   0.000000  celldm(3)=   0.000000
     celldm(4)=   0.000000  celldm(5)=   0.000000  celldm(6)=   0.000000

     crystal axes: (cart. coord. in units of alat)
               a(1) = (   1.000000   0.000000   0.000000 )  
               a(2) = (   0.000000   1.000000   0.000000 )  
               a(3) = (   0.000000   0.000000   1.000000 )  

     reciprocal axes: (cart. coord. in units 2 pi/alat)
               b(1) = (  1.000000  0.000000  0.000000 )  
               b(2) = (  0.000000  1.000000  0.000000 )  
               b(3) = (  0.000000  0.000000  1.000000 )  


     PseudoPot. # 1 for Mn read from file:
     /home/cristian/Escritorio/Proyecto_Grafeno/pseudopotenciales/Mn.pbe-spn-rrkjus_psl.0.3.1.UPF
     MD5 check sum: e1cac159bdd2ba70c18e85765a5d4279
     Pseudo is Ultrasoft + core correction, Zval = 15.0
     Generated using "atomic" code by A. Dal Corso v.6.2.2
     Using radial grid of 1187 points,  6 beta functions with: 
                l(1) =   0
                l(2) =   0
                l(3) =   1
                l(4) =   1
                l(5) =   2
                l(6) =   2
     Q(r) pseudized with 0 coefficients 


     PseudoPot. # 2 for Mn read from file:
     /home/cristian/Escritorio/Proyecto_Grafeno/pseudopotenciales/Mn.pbe-spn-rrkjus_psl.0.3.1.UPF
     MD5 check sum: e1cac159bdd2ba70c18e85765a5d4279
     Pseudo is Ultrasoft + core correction, Zval = 15.0
     Generated using "atomic" code by A. Dal Corso v.6.2.2
     Using radial grid of 1187 points,  6 beta functions with: 
                l(1) =   0
                l(2) =   0
                l(3) =   1
                l(4) =   1
                l(5) =   2
                l(6) =   2
     Q(r) pseudized with 0 coefficients 


     atomic species   valence    mass     pseudopotential
        Mn1           15.00    54.93804     Mn( 1.00)
        Mn2           15.00    54.93804     Mn( 1.00)

     Starting magnetic structure 
     atomic species   magnetization
        Mn1          0.100
        Mn2         -0.100

     48 Sym. Ops., with inversion, found



   Cartesian axes

     site n.     atom                  positions (alat units)
         1           Mn1 tau(   1) = (   0.0000000   0.0000000   0.0000000  )
         2           Mn2 tau(   2) = (   0.5000000   0.5000000   0.5000000  )

     number of k points=    20  Methfessel-Paxton smearing, width (Ry)=  0.0300
                       cart. coord. in units 2pi/alat
        k(    1) = (   0.0625000   0.0625000   0.0625000), wk =   0.0156250
        k(    2) = (   0.0625000   0.0625000   0.1875000), wk =   0.0468750
        k(    3) = (   0.0625000   0.0625000   0.3125000), wk =   0.0468750
        k(    4) = (   0.0625000   0.0625000   0.4375000), wk =   0.0468750
        k(    5) = (   0.0625000   0.1875000   0.1875000), wk =   0.0468750
        k(    6) = (   0.0625000   0.1875000   0.3125000), wk =   0.0937500
        k(    7) = (   0.0625000   0.1875000   0.4375000), wk =   0.0937500
        k(    8) = (   0.0625000   0.3125000   0.3125000), wk =   0.0468750
        k(    9) = (   0.0625000   0.3125000   0.4375000), wk =   0.0937500
        k(   10) = (   0.0625000   0.4375000   0.4375000), wk =   0.0468750
        k(   11) = (   0.1875000   0.1875000   0.1875000), wk =   0.0156250
        k(   12) = (   0.1875000   0.1875000   0.3125000), wk =   0.0468750
        k(   13) = (   0.1875000   0.1875000   0.4375000), wk =   0.0468750
        k(   14) = (   0.1875000   0.3125000   0.3125000), wk =   0.0468750
        k(   15) = (   0.1875000   0.3125000   0.4375000), wk =   0.0937500
        k(   16) = (   0.1875000   0.4375000   0.4375000), wk =   0.0468750
        k(   17) = (   0.3125000   0.3125000   0.3125000), wk =   0.0156250
        k(   18) = (   0.3125000   0.3125000   0.4375000), wk =   0.0468750
        k(   19) = (   0.3125000   0.4375000   0.4375000), wk =   0.0468750
        k(   20) = (   0.4375000   0.4375000   0.4375000), wk =   0.0156250

     Dense  grid:   338107 G-vectors     FFT dimensions: (  90,  90,  90)

     Estimated max dynamical RAM per process >     311.45 MB

     Estimated total dynamical RAM >       1.82 GB
     Generating pointlists ...
     new r_m :   0.3572 (alat units)  6.0149 (a.u.) for type    1
     new r_m :   0.3572 (alat units)  6.0149 (a.u.) for type    2

     Check: negative core charge=   -0.000013

     Initial potential from superposition of free atoms

     starting charge   29.99900, renormalised to   30.00000

     negative rho (up, down):  2.114E-07 1.198E-02
     Starting wfcs are   20 randomized atomic wfcs

     total cpu time spent up to now is       10.6 secs

     Self-consistent Calculation

     iteration #  1     ecut=    65.00 Ry     beta= 0.70
     Davidson diagonalization with overlap
     ethr =  1.00E-02,  avg # of iterations =  1.0

     negative rho (up, down):  7.811E-05 2.133E-02

     total cpu time spent up to now is       30.7 secs

     total energy              =    -424.94140545 Ry
     Harris-Foulkes estimate   =    -427.04631985 Ry
     estimated scf accuracy    <       2.74630201 Ry

     total magnetization       =     0.00 Bohr mag/cell
     absolute magnetization    =     5.98 Bohr mag/cell

     iteration #  2     ecut=    65.00 Ry     beta= 0.70
     Davidson diagonalization with overlap
     ethr =  9.15E-03,  avg # of iterations = 10.7

     total cpu time spent up to now is       98.4 secs

     total energy              =    -423.41006798 Ry
     Harris-Foulkes estimate   =    -433.97303247 Ry
     estimated scf accuracy    <      47.45175560 Ry

     total magnetization       =     0.05 Bohr mag/cell
     absolute magnetization    =     0.38 Bohr mag/cell

     iteration #  3     ecut=    65.00 Ry     beta= 0.70
     Davidson diagonalization with overlap
     c_bands:  1 eigenvalues not converged
     ethr =  9.15E-03,  avg # of iterations =  8.9

     negative rho (up, down):  0.000E+00 1.646E-05

     total cpu time spent up to now is      137.8 secs

     total energy              =    -425.19276543 Ry
     Harris-Foulkes estimate   =    -425.85878360 Ry
     estimated scf accuracy    <       5.46043375 Ry

     total magnetization       =     0.08 Bohr mag/cell
     absolute magnetization    =     5.04 Bohr mag/cell

     iteration #  4     ecut=    65.00 Ry     beta= 0.70
     Davidson diagonalization with overlap
     ethr =  9.15E-03,  avg # of iterations =  5.5

     negative rho (up, down):  0.000E+00 1.646E-05

     total cpu time spent up to now is      163.7 secs

     total energy              =    -426.30840442 Ry
     Harris-Foulkes estimate   =    -426.29812429 Ry
     estimated scf accuracy    <       0.26629769 Ry

     total magnetization       =    -1.93 Bohr mag/cell
     absolute magnetization    =     4.55 Bohr mag/cell

     iteration #  5     ecut=    65.00 Ry     beta= 0.70
     Davidson diagonalization with overlap
     ethr =  8.88E-04,  avg # of iterations =  8.8

     negative rho (up, down):  0.000E+00 8.230E-05

     total cpu time spent up to now is      204.9 secs

     total energy              =    -426.94659903 Ry
     Harris-Foulkes estimate   =    -426.95748024 Ry
     estimated scf accuracy    <       0.74386569 Ry

     total magnetization       =    -0.52 Bohr mag/cell
     absolute magnetization    =     9.32 Bohr mag/cell

     iteration #  6     ecut=    65.00 Ry     beta= 0.70
     Davidson diagonalization with overlap
     ethr =  8.88E-04,  avg # of iterations =  1.3

     negative rho (up, down):  0.000E+00 8.230E-05

     total cpu time spent up to now is      225.4 secs

     total energy              =    -426.97172313 Ry
     Harris-Foulkes estimate   =    -427.06599747 Ry
     estimated scf accuracy    <       8.60188212 Ry

     total magnetization       =    -4.23 Bohr mag/cell
     absolute magnetization    =     5.98 Bohr mag/cell

     iteration #  7     ecut=    65.00 Ry     beta= 0.70
     Davidson diagonalization with overlap
     ethr =  8.88E-04,  avg # of iterations =  1.0

     total cpu time spent up to now is      245.7 secs

     total energy              =    -426.92291009 Ry
     Harris-Foulkes estimate   =    -427.01215157 Ry
     estimated scf accuracy    <       2.49494040 Ry

     total magnetization       =    -0.39 Bohr mag/cell
     absolute magnetization    =     5.93 Bohr mag/cell

     iteration #  8     ecut=    65.00 Ry     beta= 0.70
     Davidson diagonalization with overlap
     ethr =  8.88E-04,  avg # of iterations =  1.0

     negative rho (up, down):  0.000E+00 4.830E-02

     total cpu time spent up to now is      265.9 secs

     total energy              =    -427.12085341 Ry
     Harris-Foulkes estimate   =    -426.92424717 Ry
     estimated scf accuracy    <       2.44114335 Ry

     total magnetization       =    -0.61 Bohr mag/cell
     absolute magnetization    =     5.93 Bohr mag/cell

     iteration #  9     ecut=    65.00 Ry     beta= 0.70
     Davidson diagonalization with overlap
     ethr =  8.88E-04,  avg # of iterations =  1.7

     negative rho (up, down):  0.000E+00 3.680E-02

     total cpu time spent up to now is      287.5 secs

     total energy              =    -427.18517506 Ry
     Harris-Foulkes estimate   =    -427.19347857 Ry
     estimated scf accuracy    <       2.69996201 Ry

     total magnetization       =     1.19 Bohr mag/cell
     absolute magnetization    =     8.89 Bohr mag/cell

     iteration # 10     ecut=    65.00 Ry     beta= 0.70
     Davidson diagonalization with overlap
     ethr =  8.88E-04,  avg # of iterations =  1.0

     negative rho (up, down):  0.000E+00 9.531E-03

     total cpu time spent up to now is      307.8 secs

     total energy              =    -427.12267722 Ry
     Harris-Foulkes estimate   =    -427.18623130 Ry
     estimated scf accuracy    <       2.48521398 Ry

     total magnetization       =     1.15 Bohr mag/cell
     absolute magnetization    =     9.01 Bohr mag/cell

     iteration # 11     ecut=    65.00 Ry     beta= 0.70
     Davidson diagonalization with overlap
     ethr =  8.88E-04,  avg # of iterations =  1.0

     negative rho (up, down):  0.000E+00 3.374E-04

     total cpu time spent up to now is      327.9 secs

     total energy              =    -426.89998867 Ry
     Harris-Foulkes estimate   =    -427.14751875 Ry
     estimated scf accuracy    <       3.02871836 Ry

     total magnetization       =     0.94 Bohr mag/cell
     absolute magnetization    =     6.53 Bohr mag/cell

     iteration # 12     ecut=    65.00 Ry     beta= 0.70
     Davidson diagonalization with overlap
     ethr =  8.88E-04,  avg # of iterations =  1.5

     negative rho (up, down):  0.000E+00 1.119E-02

     total cpu time spent up to now is      348.9 secs

     total energy              =    -427.07395115 Ry
     Harris-Foulkes estimate   =    -427.04366364 Ry
     estimated scf accuracy    <       0.44865863 Ry

     total magnetization       =     0.12 Bohr mag/cell
     absolute magnetization    =     9.99 Bohr mag/cell

     iteration # 13     ecut=    65.00 Ry     beta= 0.70
     Davidson diagonalization with overlap
     ethr =  8.88E-04,  avg # of iterations =  1.0

     negative rho (up, down):  0.000E+00 9.360E-02

     total cpu time spent up to now is      369.2 secs

     total energy              =    -427.02289357 Ry
     Harris-Foulkes estimate   =    -427.07680908 Ry
     estimated scf accuracy    <       0.60293497 Ry

     total magnetization       =     0.49 Bohr mag/cell
     absolute magnetization    =     9.99 Bohr mag/cell

     iteration # 14     ecut=    65.00 Ry     beta= 0.70
     Davidson diagonalization with overlap
     ethr =  8.88E-04,  avg # of iterations =  1.4

     negative rho (up, down):  0.000E+00 9.576E-02

     total cpu time spent up to now is      389.9 secs

     total energy              =    -427.08690382 Ry
     Harris-Foulkes estimate   =    -427.04827005 Ry
     estimated scf accuracy    <       0.42589355 Ry

     total magnetization       =     0.08 Bohr mag/cell
     absolute magnetization    =    10.03 Bohr mag/cell

     iteration # 15     ecut=    65.00 Ry     beta= 0.70
     Davidson diagonalization with overlap
     ethr =  8.88E-04,  avg # of iterations =  1.0

     negative rho (up, down):  0.000E+00 1.229E-01

     total cpu time spent up to now is      410.3 secs

     total energy              =    -427.10759383 Ry
     Harris-Foulkes estimate   =    -427.09628704 Ry
     estimated scf accuracy    <       0.35394456 Ry

     total magnetization       =    -0.76 Bohr mag/cell
     absolute magnetization    =    10.02 Bohr mag/cell

     iteration # 16     ecut=    65.00 Ry     beta= 0.70
     Davidson diagonalization with overlap
     ethr =  8.88E-04,  avg # of iterations =  1.0

     negative rho (up, down):  0.000E+00 2.388E-02

     total cpu time spent up to now is      430.8 secs

     total energy              =    -426.99330803 Ry
     Harris-Foulkes estimate   =    -427.12746216 Ry
     estimated scf accuracy    <       1.33989181 Ry

     total magnetization       =     1.27 Bohr mag/cell
     absolute magnetization    =    10.00 Bohr mag/cell

     iteration # 17     ecut=    65.00 Ry     beta= 0.70
     Davidson diagonalization with overlap
     ethr =  8.88E-04,  avg # of iterations =  3.0

     negative rho (up, down):  0.000E+00 3.924E-02

     total cpu time spent up to now is      457.1 secs

     total energy              =    -427.08349062 Ry
     Harris-Foulkes estimate   =    -427.08074664 Ry
     estimated scf accuracy    <       0.30053794 Ry

     total magnetization       =     0.69 Bohr mag/cell
     absolute magnetization    =    10.05 Bohr mag/cell

     iteration # 18     ecut=    65.00 Ry     beta= 0.70
     Davidson diagonalization with overlap
     ethr =  8.88E-04,  avg # of iterations =  1.1

     negative rho (up, down):  0.000E+00 2.751E-02

     total cpu time spent up to now is      477.2 secs

     total energy              =    -427.09234547 Ry
     Harris-Foulkes estimate   =    -427.09304212 Ry
     estimated scf accuracy    <       0.46162259 Ry

     total magnetization       =     0.85 Bohr mag/cell
     absolute magnetization    =    10.02 Bohr mag/cell

     iteration # 19     ecut=    65.00 Ry     beta= 0.70
     Davidson diagonalization with overlap
     ethr =  8.88E-04,  avg # of iterations =  1.0

     negative rho (up, down):  0.000E+00 2.288E-02

     total cpu time spent up to now is      497.0 secs

     total energy              =    -427.09251199 Ry
     Harris-Foulkes estimate   =    -427.09588574 Ry
     estimated scf accuracy    <       0.33909734 Ry

     total magnetization       =     0.76 Bohr mag/cell
     absolute magnetization    =    10.02 Bohr mag/cell

     iteration # 20     ecut=    65.00 Ry     beta= 0.70
     Davidson diagonalization with overlap
     ethr =  8.88E-04,  avg # of iterations =  1.0

     negative rho (up, down):  0.000E+00 2.245E-02

     total cpu time spent up to now is      517.2 secs

     total energy              =    -427.09612950 Ry
     Harris-Foulkes estimate   =    -427.09430305 Ry
     estimated scf accuracy    <       0.29432317 Ry

     total magnetization       =     0.72 Bohr mag/cell
     absolute magnetization    =    10.02 Bohr mag/cell

     iteration # 21     ecut=    65.00 Ry     beta= 0.70
     Davidson diagonalization with overlap
     ethr =  8.88E-04,  avg # of iterations =  1.0

     negative rho (up, down):  0.000E+00 2.028E-02

     total cpu time spent up to now is      537.3 secs

     total energy              =    -427.10243433 Ry
     Harris-Foulkes estimate   =    -427.09654429 Ry
     estimated scf accuracy    <       0.31085869 Ry

     total magnetization       =     0.76 Bohr mag/cell
     absolute magnetization    =    10.02 Bohr mag/cell

     iteration # 22     ecut=    65.00 Ry     beta= 0.70
     Davidson diagonalization with overlap
     ethr =  8.88E-04,  avg # of iterations =  1.0

     negative rho (up, down):  0.000E+00 1.664E-02

     total cpu time spent up to now is      557.5 secs

     total energy              =    -427.10251594 Ry
     Harris-Foulkes estimate   =    -427.11087661 Ry
     estimated scf accuracy    <       0.52766106 Ry

     total magnetization       =     1.05 Bohr mag/cell
     absolute magnetization    =    10.01 Bohr mag/cell

     iteration # 23     ecut=    65.00 Ry     beta= 0.70
     Davidson diagonalization with overlap
     ethr =  8.88E-04,  avg # of iterations =  1.0

     negative rho (up, down):  0.000E+00 1.714E-02

     total cpu time spent up to now is      577.8 secs

     total energy              =    -427.06351813 Ry
     Harris-Foulkes estimate   =    -427.10403518 Ry
     estimated scf accuracy    <       0.41430233 Ry

     total magnetization       =     0.90 Bohr mag/cell
     absolute magnetization    =    10.02 Bohr mag/cell

     iteration # 24     ecut=    65.00 Ry     beta= 0.70
     Davidson diagonalization with overlap
     ethr =  8.88E-04,  avg # of iterations =  1.0

     negative rho (up, down):  7.390E-05 5.676E-02

     total cpu time spent up to now is      598.1 secs

     total energy              =    -427.02529996 Ry
     Harris-Foulkes estimate   =    -427.07463239 Ry
     estimated scf accuracy    <       0.22731822 Ry

     total magnetization       =     0.70 Bohr mag/cell
     absolute magnetization    =    10.02 Bohr mag/cell

     iteration # 25     ecut=    65.00 Ry     beta= 0.70
     Davidson diagonalization with overlap
     ethr =  7.58E-04,  avg # of iterations =  2.5

     negative rho (up, down):  0.000E+00 2.528E-02

     total cpu time spent up to now is      620.5 secs

     total energy              =    -427.09107318 Ry
     Harris-Foulkes estimate   =    -427.11751034 Ry
     estimated scf accuracy    <       0.29280290 Ry

     total magnetization       =    -0.78 Bohr mag/cell
     absolute magnetization    =    10.03 Bohr mag/cell

     iteration # 26     ecut=    65.00 Ry     beta= 0.70
     Davidson diagonalization with overlap
     ethr =  7.58E-04,  avg # of iterations =  1.0

     negative rho (up, down):  0.000E+00 2.206E-02

     total cpu time spent up to now is      640.7 secs

     total energy              =    -427.08112945 Ry
     Harris-Foulkes estimate   =    -427.09009821 Ry
     estimated scf accuracy    <       0.17124430 Ry

     total magnetization       =    -0.69 Bohr mag/cell
     absolute magnetization    =    10.03 Bohr mag/cell

     iteration # 27     ecut=    65.00 Ry     beta= 0.70
     Davidson diagonalization with overlap
     ethr =  5.71E-04,  avg # of iterations =  1.0

     negative rho (up, down):  0.000E+00 2.423E-02

     total cpu time spent up to now is      660.9 secs

     total energy              =    -427.08878646 Ry
     Harris-Foulkes estimate   =    -427.08999867 Ry
     estimated scf accuracy    <       0.12784890 Ry

     total magnetization       =     0.66 Bohr mag/cell
     absolute magnetization    =    10.03 Bohr mag/cell

     iteration # 28     ecut=    65.00 Ry     beta= 0.70
     Davidson diagonalization with overlap
     ethr =  4.26E-04,  avg # of iterations =  1.4

     negative rho (up, down):  0.000E+00 2.270E-02

     total cpu time spent up to now is      681.2 secs

     total energy              =    -427.09279478 Ry
     Harris-Foulkes estimate   =    -427.09535192 Ry
     estimated scf accuracy    <       0.06480788 Ry

     total magnetization       =     0.50 Bohr mag/cell
     absolute magnetization    =    10.04 Bohr mag/cell

     iteration # 29     ecut=    65.00 Ry     beta= 0.70
     Davidson diagonalization with overlap
     ethr =  2.16E-04,  avg # of iterations =  1.0

     negative rho (up, down):  0.000E+00 1.858E-02

     total cpu time spent up to now is      701.6 secs

     total energy              =    -427.09276430 Ry
     Harris-Foulkes estimate   =    -427.09362842 Ry
     estimated scf accuracy    <       0.02414732 Ry

     total magnetization       =     0.30 Bohr mag/cell
     absolute magnetization    =    10.04 Bohr mag/cell

     iteration # 30     ecut=    65.00 Ry     beta= 0.70
     Davidson diagonalization with overlap
     ethr =  8.05E-05,  avg # of iterations =  2.6

     negative rho (up, down):  0.000E+00 1.923E-02

     total cpu time spent up to now is      723.2 secs

     total energy              =    -427.11795446 Ry
     Harris-Foulkes estimate   =    -427.12029057 Ry
     estimated scf accuracy    <       0.04086442 Ry

     total magnetization       =     0.24 Bohr mag/cell
     absolute magnetization    =    10.12 Bohr mag/cell

     iteration # 31     ecut=    65.00 Ry     beta= 0.70
     Davidson diagonalization with overlap
     ethr =  8.05E-05,  avg # of iterations =  1.6

     negative rho (up, down):  0.000E+00 1.962E-02

     total cpu time spent up to now is      743.9 secs

     total energy              =    -427.11787641 Ry
     Harris-Foulkes estimate   =    -427.11834354 Ry
     estimated scf accuracy    <       0.03484564 Ry

     total magnetization       =     0.22 Bohr mag/cell
     absolute magnetization    =    10.12 Bohr mag/cell

     iteration # 32     ecut=    65.00 Ry     beta= 0.70
     Davidson diagonalization with overlap
     ethr =  8.05E-05,  avg # of iterations =  1.0

     negative rho (up, down):  0.000E+00 1.714E-02

     total cpu time spent up to now is      763.9 secs

     total energy              =    -427.11955499 Ry
     Harris-Foulkes estimate   =    -427.11794067 Ry
     estimated scf accuracy    <       0.02980779 Ry

     total magnetization       =     0.20 Bohr mag/cell
     absolute magnetization    =    10.12 Bohr mag/cell

     iteration # 33     ecut=    65.00 Ry     beta= 0.70
     Davidson diagonalization with overlap
     ethr =  8.05E-05,  avg # of iterations =  1.0

     negative rho (up, down):  0.000E+00 2.109E-02

     total cpu time spent up to now is      783.8 secs

     total energy              =    -427.11406508 Ry
     Harris-Foulkes estimate   =    -427.11997727 Ry
     estimated scf accuracy    <       0.06982055 Ry

     total magnetization       =     0.41 Bohr mag/cell
     absolute magnetization    =    10.12 Bohr mag/cell

     iteration # 34     ecut=    65.00 Ry     beta= 0.70
     Davidson diagonalization with overlap
     ethr =  8.05E-05,  avg # of iterations =  1.0

     negative rho (up, down):  0.000E+00 2.092E-02

     total cpu time spent up to now is      804.0 secs

     total energy              =    -427.11464901 Ry
     Harris-Foulkes estimate   =    -427.11481351 Ry
     estimated scf accuracy    <       0.05217414 Ry

     total magnetization       =     0.38 Bohr mag/cell
     absolute magnetization    =    10.12 Bohr mag/cell

     iteration # 35     ecut=    65.00 Ry     beta= 0.70
     Davidson diagonalization with overlap
     ethr =  8.05E-05,  avg # of iterations =  1.0

     negative rho (up, down):  0.000E+00 1.758E-02

     total cpu time spent up to now is      824.2 secs

     total energy              =    -427.11443494 Ry
     Harris-Foulkes estimate   =    -427.11477636 Ry
     estimated scf accuracy    <       0.05032547 Ry

     total magnetization       =     0.37 Bohr mag/cell
     absolute magnetization    =    10.12 Bohr mag/cell

     iteration # 36     ecut=    65.00 Ry     beta= 0.70
     Davidson diagonalization with overlap
     ethr =  8.05E-05,  avg # of iterations =  1.0

     negative rho (up, down):  0.000E+00 1.715E-02

     total cpu time spent up to now is      844.0 secs

     total energy              =    -427.11433694 Ry
     Harris-Foulkes estimate   =    -427.11450118 Ry
     estimated scf accuracy    <       0.05243486 Ry

     total magnetization       =     0.36 Bohr mag/cell
     absolute magnetization    =    10.12 Bohr mag/cell

     iteration # 37     ecut=    65.00 Ry     beta= 0.70
     Davidson diagonalization with overlap
     ethr =  8.05E-05,  avg # of iterations =  1.0

     negative rho (up, down):  0.000E+00 2.686E-02

     total cpu time spent up to now is      864.0 secs

     total energy              =    -427.10453750 Ry
     Harris-Foulkes estimate   =    -427.11435708 Ry
     estimated scf accuracy    <       0.06028926 Ry

     total magnetization       =     0.39 Bohr mag/cell
     absolute magnetization    =    10.12 Bohr mag/cell

     iteration # 38     ecut=    65.00 Ry     beta= 0.70
     Davidson diagonalization with overlap
     ethr =  8.05E-05,  avg # of iterations =  3.0

     negative rho (up, down):  0.000E+00 2.509E-02

     total cpu time spent up to now is      890.8 secs

     total energy              =    -427.11409894 Ry
     Harris-Foulkes estimate   =    -427.11394073 Ry
     estimated scf accuracy    <       0.02150510 Ry

     total magnetization       =    -0.23 Bohr mag/cell
     absolute magnetization    =    10.11 Bohr mag/cell

     iteration # 39     ecut=    65.00 Ry     beta= 0.70
     Davidson diagonalization with overlap
     ethr =  7.17E-05,  avg # of iterations =  2.4

     negative rho (up, down):  0.000E+00 2.621E-02

     total cpu time spent up to now is      912.3 secs

     total energy              =    -427.12267859 Ry
     Harris-Foulkes estimate   =    -427.12304258 Ry
     estimated scf accuracy    <       0.00898306 Ry

     total magnetization       =    -0.03 Bohr mag/cell
     absolute magnetization    =    10.20 Bohr mag/cell

     iteration # 40     ecut=    65.00 Ry     beta= 0.70
     Davidson diagonalization with overlap
     ethr =  2.99E-05,  avg # of iterations =  1.2

     negative rho (up, down):  0.000E+00 2.193E-02

     total cpu time spent up to now is      932.8 secs

     total energy              =    -427.12513869 Ry
     Harris-Foulkes estimate   =    -427.12335670 Ry
     estimated scf accuracy    <       0.00937428 Ry

     total magnetization       =    -0.05 Bohr mag/cell
     absolute magnetization    =    10.20 Bohr mag/cell

     iteration # 41     ecut=    65.00 Ry     beta= 0.70
     Davidson diagonalization with overlap
     ethr =  2.99E-05,  avg # of iterations =  3.3

     negative rho (up, down):  0.000E+00 2.186E-02

     total cpu time spent up to now is      960.7 secs

     total energy              =    -427.12905239 Ry
     Harris-Foulkes estimate   =    -427.12882160 Ry
     estimated scf accuracy    <       0.03491529 Ry

     total magnetization       =     0.05 Bohr mag/cell
     absolute magnetization    =    10.20 Bohr mag/cell

     iteration # 42     ecut=    65.00 Ry     beta= 0.70
     Davidson diagonalization with overlap
     ethr =  2.99E-05,  avg # of iterations =  1.0

     negative rho (up, down):  0.000E+00 2.989E-02

     total cpu time spent up to now is      980.9 secs

     total energy              =    -427.12021358 Ry
     Harris-Foulkes estimate   =    -427.12907578 Ry
     estimated scf accuracy    <       0.03572817 Ry

     total magnetization       =     0.05 Bohr mag/cell
     absolute magnetization    =    10.20 Bohr mag/cell

     iteration # 43     ecut=    65.00 Ry     beta= 0.70
     Davidson diagonalization with overlap
     ethr =  2.99E-05,  avg # of iterations =  3.0

     negative rho (up, down):  0.000E+00 3.011E-02

     total cpu time spent up to now is     1008.8 secs

     total energy              =    -427.12371131 Ry
     Harris-Foulkes estimate   =    -427.12374866 Ry
     estimated scf accuracy    <       0.00600015 Ry

     total magnetization       =    -0.06 Bohr mag/cell
     absolute magnetization    =    10.21 Bohr mag/cell

     iteration # 44     ecut=    65.00 Ry     beta= 0.70
     Davidson diagonalization with overlap
     ethr =  2.00E-05,  avg # of iterations =  2.0

     negative rho (up, down):  0.000E+00 3.035E-02

     total cpu time spent up to now is     1029.8 secs

     total energy              =    -427.12338589 Ry
     Harris-Foulkes estimate   =    -427.12379664 Ry
     estimated scf accuracy    <       0.00355647 Ry

     total magnetization       =    -0.02 Bohr mag/cell
     absolute magnetization    =    10.21 Bohr mag/cell

     iteration # 45     ecut=    65.00 Ry     beta= 0.70
     Davidson diagonalization with overlap
     ethr =  1.19E-05,  avg # of iterations =  2.0

     negative rho (up, down):  0.000E+00 2.965E-02

     total cpu time spent up to now is     1051.9 secs

     total energy              =    -427.12358486 Ry
     Harris-Foulkes estimate   =    -427.12364405 Ry
     estimated scf accuracy    <       0.00072029 Ry

     total magnetization       =     0.01 Bohr mag/cell
     absolute magnetization    =    10.19 Bohr mag/cell

     iteration # 46     ecut=    65.00 Ry     beta= 0.70
     Davidson diagonalization with overlap
     ethr =  2.40E-06,  avg # of iterations =  2.8

     negative rho (up, down):  0.000E+00 2.991E-02

     total cpu time spent up to now is     1075.2 secs

     total energy              =    -427.12365988 Ry
     Harris-Foulkes estimate   =    -427.12364761 Ry
     estimated scf accuracy    <       0.00027426 Ry

     total magnetization       =     0.01 Bohr mag/cell
     absolute magnetization    =    10.19 Bohr mag/cell

     iteration # 47     ecut=    65.00 Ry     beta= 0.70
     Davidson diagonalization with overlap
     ethr =  9.14E-07,  avg # of iterations =  1.4

     negative rho (up, down):  0.000E+00 2.769E-02

     total cpu time spent up to now is     1095.8 secs

     total energy              =    -427.12351326 Ry
     Harris-Foulkes estimate   =    -427.12366598 Ry
     estimated scf accuracy    <       0.00032672 Ry

     total magnetization       =     0.01 Bohr mag/cell
     absolute magnetization    =    10.19 Bohr mag/cell

     iteration # 48     ecut=    65.00 Ry     beta= 0.70
     Davidson diagonalization with overlap
     ethr =  9.14E-07,  avg # of iterations =  2.2

     negative rho (up, down):  0.000E+00 2.864E-02

     total cpu time spent up to now is     1117.9 secs

     total energy              =    -427.12361221 Ry
     Harris-Foulkes estimate   =    -427.12361032 Ry
     estimated scf accuracy    <       0.00010642 Ry

     total magnetization       =    -0.00 Bohr mag/cell
     absolute magnetization    =    10.19 Bohr mag/cell

     iteration # 49     ecut=    65.00 Ry     beta= 0.70
     Davidson diagonalization with overlap
     ethr =  3.55E-07,  avg # of iterations =  1.6

     negative rho (up, down):  0.000E+00 2.854E-02

     total cpu time spent up to now is     1138.7 secs

     total energy              =    -427.12362834 Ry
     Harris-Foulkes estimate   =    -427.12362741 Ry
     estimated scf accuracy    <       0.00012306 Ry

     total magnetization       =    -0.01 Bohr mag/cell
     absolute magnetization    =    10.19 Bohr mag/cell

     iteration # 50     ecut=    65.00 Ry     beta= 0.70
     Davidson diagonalization with overlap
     ethr =  3.55E-07,  avg # of iterations =  1.0

     negative rho (up, down):  0.000E+00 2.851E-02

     total cpu time spent up to now is     1159.2 secs

     total energy              =    -427.12362711 Ry
     Harris-Foulkes estimate   =    -427.12363005 Ry
     estimated scf accuracy    <       0.00011116 Ry

     total magnetization       =    -0.01 Bohr mag/cell
     absolute magnetization    =    10.19 Bohr mag/cell

     iteration # 51     ecut=    65.00 Ry     beta= 0.70
     Davidson diagonalization with overlap
     ethr =  3.55E-07,  avg # of iterations =  1.0

     negative rho (up, down):  0.000E+00 2.818E-02

     total cpu time spent up to now is     1179.7 secs

     total energy              =    -427.12361694 Ry
     Harris-Foulkes estimate   =    -427.12362882 Ry
     estimated scf accuracy    <       0.00006516 Ry

     total magnetization       =    -0.00 Bohr mag/cell
     absolute magnetization    =    10.19 Bohr mag/cell

     iteration # 52     ecut=    65.00 Ry     beta= 0.70
     Davidson diagonalization with overlap
     ethr =  2.17E-07,  avg # of iterations =  1.4

     negative rho (up, down):  0.000E+00 2.825E-02

     total cpu time spent up to now is     1200.3 secs

     total energy              =    -427.12362551 Ry
     Harris-Foulkes estimate   =    -427.12362605 Ry
     estimated scf accuracy    <       0.00000523 Ry

     total magnetization       =     0.00 Bohr mag/cell
     absolute magnetization    =    10.19 Bohr mag/cell

     iteration # 53     ecut=    65.00 Ry     beta= 0.70
     Davidson diagonalization with overlap
     ethr =  1.74E-08,  avg # of iterations =  3.1

     negative rho (up, down):  0.000E+00 2.825E-02

     total cpu time spent up to now is     1224.4 secs

     total energy              =    -427.12403708 Ry
     Harris-Foulkes estimate   =    -427.12403760 Ry
     estimated scf accuracy    <       0.00004449 Ry

     total magnetization       =    -0.01 Bohr mag/cell
     absolute magnetization    =    10.19 Bohr mag/cell

     iteration # 54     ecut=    65.00 Ry     beta= 0.70
     Davidson diagonalization with overlap
     ethr =  1.74E-08,  avg # of iterations =  1.1

     negative rho (up, down):  0.000E+00 2.825E-02

     total cpu time spent up to now is     1244.7 secs

     total energy              =    -427.12403708 Ry
     Harris-Foulkes estimate   =    -427.12403714 Ry
     estimated scf accuracy    <       0.00003914 Ry

     total magnetization       =    -0.01 Bohr mag/cell
     absolute magnetization    =    10.19 Bohr mag/cell

     iteration # 55     ecut=    65.00 Ry     beta= 0.70
     Davidson diagonalization with overlap
     ethr =  1.74E-08,  avg # of iterations =  1.0

     negative rho (up, down):  0.000E+00 2.851E-02

     total cpu time spent up to now is     1265.2 secs

     total energy              =    -427.12403646 Ry
     Harris-Foulkes estimate   =    -427.12403715 Ry
     estimated scf accuracy    <       0.00003155 Ry

     total magnetization       =    -0.01 Bohr mag/cell
     absolute magnetization    =    10.19 Bohr mag/cell

     iteration # 56     ecut=    65.00 Ry     beta= 0.70
     Davidson diagonalization with overlap
     ethr =  1.74E-08,  avg # of iterations =  1.0

     negative rho (up, down):  0.000E+00 2.897E-02

     total cpu time spent up to now is     1285.5 secs

     total energy              =    -427.12403630 Ry
     Harris-Foulkes estimate   =    -427.12403655 Ry
     estimated scf accuracy    <       0.00002492 Ry

     total magnetization       =    -0.01 Bohr mag/cell
     absolute magnetization    =    10.19 Bohr mag/cell

     iteration # 57     ecut=    65.00 Ry     beta= 0.70
     Davidson diagonalization with overlap
     ethr =  1.74E-08,  avg # of iterations =  1.0

     negative rho (up, down):  0.000E+00 2.881E-02

     total cpu time spent up to now is     1305.8 secs

     total energy              =    -427.12403655 Ry
     Harris-Foulkes estimate   =    -427.12403635 Ry
     estimated scf accuracy    <       0.00002116 Ry

     total magnetization       =    -0.01 Bohr mag/cell
     absolute magnetization    =    10.19 Bohr mag/cell

     iteration # 58     ecut=    65.00 Ry     beta= 0.70
     Davidson diagonalization with overlap
     ethr =  1.74E-08,  avg # of iterations =  1.0

     negative rho (up, down):  0.000E+00 2.851E-02

     total cpu time spent up to now is     1326.1 secs

     total energy              =    -427.12403607 Ry
     Harris-Foulkes estimate   =    -427.12403656 Ry
     estimated scf accuracy    <       0.00002240 Ry

     total magnetization       =    -0.01 Bohr mag/cell
     absolute magnetization    =    10.19 Bohr mag/cell

     iteration # 59     ecut=    65.00 Ry     beta= 0.70
     Davidson diagonalization with overlap
     ethr =  1.74E-08,  avg # of iterations =  1.0

     negative rho (up, down):  0.000E+00 2.871E-02

     total cpu time spent up to now is     1346.7 secs

     total energy              =    -427.12403538 Ry
     Harris-Foulkes estimate   =    -427.12403611 Ry
     estimated scf accuracy    <       0.00002126 Ry

     total magnetization       =    -0.01 Bohr mag/cell
     absolute magnetization    =    10.19 Bohr mag/cell

     iteration # 60     ecut=    65.00 Ry     beta= 0.70
     Davidson diagonalization with overlap
     ethr =  1.74E-08,  avg # of iterations =  1.0

     negative rho (up, down):  0.000E+00 2.854E-02

     total cpu time spent up to now is     1366.9 secs

     total energy              =    -427.12403552 Ry
     Harris-Foulkes estimate   =    -427.12403552 Ry
     estimated scf accuracy    <       0.00001330 Ry

     total magnetization       =    -0.00 Bohr mag/cell
     absolute magnetization    =    10.19 Bohr mag/cell

     iteration # 61     ecut=    65.00 Ry     beta= 0.70
     Davidson diagonalization with overlap
     ethr =  1.74E-08,  avg # of iterations =  1.0

     negative rho (up, down):  0.000E+00 2.897E-02

     total cpu time spent up to now is     1387.2 secs

     total energy              =    -427.12403267 Ry
     Harris-Foulkes estimate   =    -427.12403555 Ry
     estimated scf accuracy    <       0.00001410 Ry

     total magnetization       =    -0.01 Bohr mag/cell
     absolute magnetization    =    10.19 Bohr mag/cell

     iteration # 62     ecut=    65.00 Ry     beta= 0.70
     Davidson diagonalization with overlap
     ethr =  1.74E-08,  avg # of iterations =  2.5

     negative rho (up, down):  0.000E+00 2.923E-02

     Magnetic moment per site:
     atom:    1    charge:   14.9626    magn:    5.0144    constr:    0.0000
     atom:    2    charge:   14.9622    magn:   -5.0149    constr:    0.0000

     total cpu time spent up to now is     1411.6 secs

     End of self-consistent calculation

 ------ SPIN UP ------------


          k = 0.0625 0.0625 0.0625 ( 42301 PWs)   bands (ev):

   -86.5829 -81.1933 -55.2847 -55.2847 -55.2847 -50.0130 -50.0130 -50.0130
    -7.2792  -7.2792  -7.2792  -7.2791  -7.2791  -4.5938  -3.5580  -2.8413
    -2.8413  -2.8398  -2.8398

          k = 0.0625 0.0625 0.1875 ( 42288 PWs)   bands (ev):

   -86.5829 -81.1933 -55.2847 -55.2847 -55.2847 -50.0130 -50.0130 -50.0130
    -7.2792  -7.2792  -7.2792  -7.2791  -7.2791  -4.5918  -3.5562  -2.8413
    -2.8408  -2.8400  -2.8398

          k = 0.0625 0.0625 0.3125 ( 42267 PWs)   bands (ev):

   -86.5829 -81.1933 -55.2847 -55.2847 -55.2847 -50.0130 -50.0130 -50.0130
    -7.2792  -7.2792  -7.2792  -7.2791  -7.2790  -4.5888  -3.5536  -2.8412
    -2.8402  -2.8402  -2.8400

          k = 0.0625 0.0625 0.4375 ( 42228 PWs)   bands (ev):

   -86.5829 -81.1933 -55.2847 -55.2847 -55.2847 -50.0130 -50.0130 -50.0130
    -7.2792  -7.2792  -7.2792  -7.2791  -7.2790  -4.5868  -3.5519  -2.8412
    -2.8404  -2.8404  -2.8395

          k = 0.0625 0.1875 0.1875 ( 42278 PWs)   bands (ev):

   -86.5829 -81.1933 -55.2847 -55.2847 -55.2847 -50.0130 -50.0130 -50.0130
    -7.2792  -7.2792  -7.2792  -7.2791  -7.2791  -4.5899  -3.5538  -2.8410
    -2.8405  -2.8401  -2.8400

          k = 0.0625 0.1875 0.3125 ( 42259 PWs)   bands (ev):

   -86.5829 -81.1933 -55.2847 -55.2847 -55.2847 -50.0130 -50.0130 -50.0130
    -7.2792  -7.2792  -7.2792  -7.2791  -7.2790  -4.5871  -3.5504  -2.8409
    -2.8404  -2.8402  -2.8398

          k = 0.0625 0.1875 0.4375 ( 42233 PWs)   bands (ev):

   -86.5829 -81.1933 -55.2847 -55.2847 -55.2847 -50.0130 -50.0130 -50.0130
    -7.2792  -7.2792  -7.2792  -7.2791  -7.2790  -4.5852  -3.5480  -2.8408
    -2.8405  -2.8404  -2.8399

          k = 0.0625 0.3125 0.3125 ( 42242 PWs)   bands (ev):

   -86.5829 -81.1933 -55.2847 -55.2847 -55.2847 -50.0130 -50.0130 -50.0130
    -7.2792  -7.2792  -7.2792  -7.2791  -7.2790  -4.5847  -3.5459  -2.8406
    -2.8405  -2.8402  -2.8394

          k = 0.0625 0.3125 0.4375 ( 42213 PWs)   bands (ev):

   -86.5829 -81.1933 -55.2847 -55.2847 -55.2847 -50.0130 -50.0130 -50.0130
    -7.2792  -7.2792  -7.2792  -7.2791  -7.2790  -4.5829  -3.5426  -2.8407
    -2.8404  -2.8403  -2.8401

          k = 0.0625 0.4375 0.4375 ( 42239 PWs)   bands (ev):

   -86.5829 -81.1933 -55.2847 -55.2847 -55.2847 -50.0130 -50.0130 -50.0130
    -7.2792  -7.2792  -7.2792  -7.2791  -7.2790  -4.5814  -3.5387  -2.8408
    -2.8403  -2.8403  -2.8403

          k = 0.1875 0.1875 0.1875 ( 42241 PWs)   bands (ev):

   -86.5829 -81.1933 -55.2847 -55.2847 -55.2847 -50.0130 -50.0130 -50.0130
    -7.2792  -7.2792  -7.2792  -7.2791  -7.2791  -4.5880  -3.5510  -2.8405
    -2.8405  -2.8402  -2.8402

          k = 0.1875 0.1875 0.3125 ( 42228 PWs)   bands (ev):

   -86.5829 -81.1933 -55.2847 -55.2847 -55.2847 -50.0130 -50.0130 -50.0130
    -7.2792  -7.2792  -7.2792  -7.2791  -7.2790  -4.5855  -3.5471  -2.8405
    -2.8404  -2.8402  -2.8397

          k = 0.1875 0.1875 0.4375 ( 42256 PWs)   bands (ev):

   -86.5829 -81.1933 -55.2847 -55.2847 -55.2847 -50.0130 -50.0130 -50.0130
    -7.2792  -7.2792  -7.2792  -7.2791  -7.2790  -4.5836  -3.5443  -2.8406
    -2.8404  -2.8404  -2.8392

          k = 0.1875 0.3125 0.3125 ( 42244 PWs)   bands (ev):

   -86.5829 -81.1933 -55.2847 -55.2847 -55.2847 -50.0130 -50.0130 -50.0130
    -7.2792  -7.2792  -7.2792  -7.2790  -7.2790  -4.5831  -3.5424  -2.8406
    -2.8404  -2.8401  -2.8394

          k = 0.1875 0.3125 0.4375 ( 42227 PWs)   bands (ev):

   -86.5829 -81.1933 -55.2847 -55.2847 -55.2847 -50.0130 -50.0130 -50.0130
    -7.2792  -7.2792  -7.2792  -7.2790  -7.2790  -4.5815  -3.5390  -2.8406
    -2.8404  -2.8403  -2.8400

          k = 0.1875 0.4375 0.4375 ( 42231 PWs)   bands (ev):

   -86.5829 -81.1933 -55.2847 -55.2847 -55.2847 -50.0130 -50.0130 -50.0130
    -7.2792  -7.2792  -7.2792  -7.2790  -7.2789  -4.5799  -3.5353  -2.8409
    -2.8405  -2.8405  -2.8398

          k = 0.3125 0.3125 0.3125 ( 42214 PWs)   bands (ev):

   -86.5829 -81.1933 -55.2847 -55.2847 -55.2847 -50.0130 -50.0130 -50.0130
    -7.2792  -7.2792  -7.2792  -7.2790  -7.2790  -4.5809  -3.5375  -2.8407
    -2.8407  -2.8393  -2.8393

          k = 0.3125 0.3125 0.4375 ( 42249 PWs)   bands (ev):

   -86.5829 -81.1933 -55.2847 -55.2847 -55.2847 -50.0130 -50.0130 -50.0130
    -7.2792  -7.2792  -7.2792  -7.2790  -7.2790  -4.5793  -3.5340  -2.8409
    -2.8407  -2.8393  -2.8388

          k = 0.3125 0.4375 0.4375 ( 42233 PWs)   bands (ev):

   -86.5829 -81.1933 -55.2847 -55.2847 -55.2847 -50.0130 -50.0130 -50.0130
    -7.2792  -7.2792  -7.2792  -7.2790  -7.2790  -4.5778  -3.5304  -2.8410
    -2.8409  -2.8408  -2.8390

          k = 0.4375 0.4375 0.4375 ( 42223 PWs)   bands (ev):

   -86.5829 -81.1933 -55.2847 -55.2847 -55.2847 -50.0130 -50.0130 -50.0130
    -7.2792  -7.2792  -7.2792  -7.2790  -7.2790  -4.5764  -3.5269  -2.8411
    -2.8411  -2.8385  -2.8385

 ------ SPIN DOWN ----------


          k = 0.0625 0.0625 0.0625 ( 42301 PWs)   bands (ev):

   -86.5810 -81.1947 -55.2831 -55.2831 -55.2831 -50.0138 -50.0138 -50.0138
    -7.2784  -7.2784  -7.2781  -7.2781  -7.2781  -4.5942  -3.5582  -2.8419
    -2.8419  -2.8397  -2.8397

          k = 0.0625 0.0625 0.1875 ( 42288 PWs)   bands (ev):

   -86.5810 -81.1947 -55.2831 -55.2831 -55.2831 -50.0138 -50.0138 -50.0138
    -7.2784  -7.2784  -7.2781  -7.2781  -7.2781  -4.5921  -3.5564  -2.8418
    -2.8414  -2.8399  -2.8398

          k = 0.0625 0.0625 0.3125 ( 42267 PWs)   bands (ev):

   -86.5810 -81.1947 -55.2831 -55.2831 -55.2831 -50.0138 -50.0138 -50.0138
    -7.2784  -7.2784  -7.2781  -7.2781  -7.2781  -4.5892  -3.5539  -2.8418
    -2.8407  -2.8401  -2.8401

          k = 0.0625 0.0625 0.4375 ( 42228 PWs)   bands (ev):

   -86.5810 -81.1947 -55.2831 -55.2831 -55.2831 -50.0138 -50.0138 -50.0138
    -7.2784  -7.2783  -7.2781  -7.2781  -7.2781  -4.5871  -3.5521  -2.8418
    -2.8403  -2.8401  -2.8398

          k = 0.0625 0.1875 0.1875 ( 42278 PWs)   bands (ev):

   -86.5810 -81.1947 -55.2831 -55.2831 -55.2831 -50.0138 -50.0138 -50.0138
    -7.2784  -7.2784  -7.2781  -7.2781  -7.2781  -4.5902  -3.5540  -2.8415
    -2.8411  -2.8400  -2.8399

          k = 0.0625 0.1875 0.3125 ( 42259 PWs)   bands (ev):

   -86.5810 -81.1947 -55.2831 -55.2831 -55.2831 -50.0138 -50.0138 -50.0138
    -7.2784  -7.2784  -7.2781  -7.2781  -7.2781  -4.5875  -3.5507  -2.8415
    -2.8405  -2.8403  -2.8399

          k = 0.0625 0.1875 0.4375 ( 42233 PWs)   bands (ev):

   -86.5810 -81.1947 -55.2831 -55.2831 -55.2831 -50.0138 -50.0138 -50.0138
    -7.2784  -7.2783  -7.2781  -7.2781  -7.2781  -4.5855  -3.5483  -2.8414
    -2.8404  -2.8402  -2.8399

          k = 0.0625 0.3125 0.3125 ( 42242 PWs)   bands (ev):

   -86.5810 -81.1947 -55.2831 -55.2831 -55.2831 -50.0138 -50.0138 -50.0138
    -7.2784  -7.2783  -7.2781  -7.2781  -7.2781  -4.5850  -3.5461  -2.8412
    -2.8404  -2.8401  -2.8400

          k = 0.0625 0.3125 0.4375 ( 42213 PWs)   bands (ev):

   -86.5810 -81.1947 -55.2831 -55.2831 -55.2831 -50.0138 -50.0138 -50.0138
    -7.2784  -7.2783  -7.2781  -7.2781  -7.2781  -4.5833  -3.5428  -2.8411
    -2.8406  -2.8402  -2.8400

          k = 0.0625 0.4375 0.4375 ( 42239 PWs)   bands (ev):

   -86.5810 -81.1947 -55.2831 -55.2831 -55.2831 -50.0138 -50.0138 -50.0138
    -7.2784  -7.2783  -7.2781  -7.2781  -7.2781  -4.5817  -3.5389  -2.8409
    -2.8407  -2.8402  -2.8400

          k = 0.1875 0.1875 0.1875 ( 42241 PWs)   bands (ev):

   -86.5810 -81.1947 -55.2831 -55.2831 -55.2831 -50.0138 -50.0138 -50.0138
    -7.2784  -7.2784  -7.2781  -7.2781  -7.2781  -4.5884  -3.5513  -2.8411
    -2.8411  -2.8400  -2.8400

          k = 0.1875 0.1875 0.3125 ( 42228 PWs)   bands (ev):

   -86.5810 -81.1947 -55.2831 -55.2831 -55.2831 -50.0138 -50.0138 -50.0138
    -7.2784  -7.2783  -7.2781  -7.2781  -7.2781  -4.5858  -3.5474  -2.8411
    -2.8404  -2.8402  -2.8400

          k = 0.1875 0.1875 0.4375 ( 42256 PWs)   bands (ev):

   -86.5810 -81.1947 -55.2831 -55.2831 -55.2831 -50.0138 -50.0138 -50.0138
    -7.2784  -7.2783  -7.2781  -7.2781  -7.2781  -4.5840  -3.5446  -2.8411
    -2.8405  -2.8403  -2.8398

          k = 0.1875 0.3125 0.3125 ( 42244 PWs)   bands (ev):

   -86.5810 -81.1947 -55.2831 -55.2831 -55.2831 -50.0138 -50.0138 -50.0138
    -7.2784  -7.2783  -7.2781  -7.2781  -7.2781  -4.5835  -3.5426  -2.8407
    -2.8405  -2.8403  -2.8400

          k = 0.1875 0.3125 0.4375 ( 42227 PWs)   bands (ev):

   -86.5810 -81.1947 -55.2831 -55.2831 -55.2831 -50.0138 -50.0138 -50.0138
    -7.2784  -7.2783  -7.2781  -7.2781  -7.2781  -4.5818  -3.5393  -2.8407
    -2.8406  -2.8404  -2.8395

          k = 0.1875 0.4375 0.4375 ( 42231 PWs)   bands (ev):

   -86.5810 -81.1947 -55.2831 -55.2831 -55.2831 -50.0138 -50.0138 -50.0138
    -7.2784  -7.2783  -7.2781  -7.2781  -7.2781  -4.5802  -3.5355  -2.8408
    -2.8404  -2.8404  -2.8404

          k = 0.3125 0.3125 0.3125 ( 42214 PWs)   bands (ev):

   -86.5810 -81.1947 -55.2831 -55.2831 -55.2831 -50.0138 -50.0138 -50.0138
    -7.2783  -7.2783  -7.2781  -7.2781  -7.2781  -4.5812  -3.5377  -2.8406
    -2.8406  -2.8404  -2.8399

          k = 0.3125 0.3125 0.4375 ( 42249 PWs)   bands (ev):

   -86.5810 -81.1947 -55.2831 -55.2831 -55.2831 -50.0138 -50.0138 -50.0138
    -7.2783  -7.2783  -7.2781  -7.2781  -7.2781  -4.5797  -3.5342  -2.8407
    -2.8406  -2.8405  -2.8399

          k = 0.3125 0.4375 0.4375 ( 42233 PWs)   bands (ev):

   -86.5810 -81.1947 -55.2831 -55.2831 -55.2831 -50.0138 -50.0138 -50.0138
    -7.2783  -7.2783  -7.2781  -7.2781  -7.2781  -4.5782  -3.5306  -2.8409
    -2.8408  -2.8407  -2.8397

          k = 0.4375 0.4375 0.4375 ( 42223 PWs)   bands (ev):

   -86.5810 -81.1947 -55.2831 -55.2831 -55.2831 -50.0138 -50.0138 -50.0138
    -7.2783  -7.2783  -7.2781  -7.2781  -7.2781  -4.5767  -3.5271  -2.8410
    -2.8410  -2.8410  -2.8391

     the Fermi energy is    -3.1873 ev

!    total energy              =    -427.12403428 Ry
     Harris-Foulkes estimate   =    -427.12403466 Ry
     estimated scf accuracy    <       0.00000066 Ry

     The total energy is the sum of the following terms:

     one-electron contribution =    -533.13293428 Ry
     hartree contribution      =     258.68711958 Ry
     xc contribution           =     -55.42502392 Ry
     ewald contribution        =     -97.26259588 Ry
     smearing contrib. (-TS)   =       0.00940023 Ry

     total magnetization       =    -0.00 Bohr mag/cell
     absolute magnetization    =    10.19 Bohr mag/cell

     convergence has been achieved in  62 iterations

     Writing output data file mn-65.save/

     init_run     :      8.95s CPU      9.21s WALL (       1 calls)
     electrons    :   1369.43s CPU   1401.07s WALL (       1 calls)

     Called by init_run:
     wfcinit      :      7.66s CPU      7.78s WALL (       1 calls)
     potinit      :      0.37s CPU      0.38s WALL (       1 calls)
     hinit0       :      0.50s CPU      0.50s WALL (       1 calls)

     Called by electrons:
     c_bands      :   1085.31s CPU   1099.44s WALL (      62 calls)
     sum_band     :    241.11s CPU    251.39s WALL (      62 calls)
     v_of_rho     :     15.78s CPU     16.02s WALL (      63 calls)
     newd         :     20.32s CPU     27.33s WALL (      63 calls)
     mix_rho      :      6.77s CPU      6.83s WALL (      62 calls)

     Called by c_bands:
     init_us_2    :     14.03s CPU     14.13s WALL (    5000 calls)
     cegterg      :   1031.50s CPU   1045.37s WALL (    2480 calls)

     Called by sum_band:
     sum_band:bec :      0.06s CPU      0.06s WALL (    2480 calls)
     addusdens    :     41.78s CPU     48.90s WALL (      62 calls)

     Called by *egterg:
     h_psi        :    764.07s CPU    777.07s WALL (    7243 calls)
     s_psi        :     50.18s CPU     50.40s WALL (    7243 calls)
     g_psi        :      3.49s CPU      3.50s WALL (    4723 calls)
     cdiaghg      :      4.14s CPU      4.16s WALL (    7203 calls)

     Called by h_psi:
     h_psi:pot    :    761.09s CPU    774.05s WALL (    7243 calls)
     h_psi:calbec :     74.54s CPU     75.00s WALL (    7243 calls)
     vloc_psi     :    630.56s CPU    642.89s WALL (    7243 calls)
     add_vuspsi   :     55.92s CPU     56.13s WALL (    7243 calls)

     General routines
     calbec       :    106.48s CPU    107.07s WALL (    9723 calls)
     fft          :      7.97s CPU      8.24s WALL (    1321 calls)
     ffts         :      0.62s CPU      0.65s WALL (     124 calls)
     fftw         :    681.55s CPU    695.05s WALL (  259366 calls)

     Parallel routines
     fft_scatt_xy :     71.71s CPU     73.13s WALL (  260811 calls)
     fft_scatt_yz :    265.64s CPU    271.58s WALL (  260811 calls)

     PWSCF        :  22m59.99s CPU  23m32.29s WALL


   This run was terminated on:  14:12: 8  17Mar2022            

=------------------------------------------------------------------------------=
   JOB DONE.
=------------------------------------------------------------------------------=
