
     Program PWSCF v.6.4.1 starts on 17Mar2022 at 14:12: 9 

     This program is part of the open-source Quantum ESPRESSO suite
     for quantum simulation of materials; please cite
         "P. Giannozzi et al., J. Phys.:Condens. Matter 21 395502 (2009);
         "P. Giannozzi et al., J. Phys.:Condens. Matter 29 465901 (2017);
          URL http://www.quantum-espresso.org", 
     in publications or presentations arising from this work. More details at
     http://www.quantum-espresso.org/quote

     Parallel version (MPI), running on     6 processors

     MPI processes distributed on     1 nodes
     R & G space division:  proc/nbgrp/npool/nimage =       6
     Reading input from mn-70.in

     Current dimensions of program PWSCF are:
     Max number of different atomic species (ntypx) = 10
     Max number of k-points (npk) =  40000
     Max angular momentum in pseudopotentials (lmaxx) =  3
               file Mn.pbe-spn-rrkjus_psl.0.3.1.UPF: wavefunction(s)  3D renormalized
               file Mn.pbe-spn-rrkjus_psl.0.3.1.UPF: wavefunction(s)  3D renormalized

     Subspace diagonalization in iterative solution of the eigenvalue problem:
     a serial algorithm will be used

     Message from routine setup:
     DEPRECATED: symmetry with ibrav=0, use correct ibrav instead

     Parallelization info
     --------------------
     sticks:   dense  smooth     PW     G-vecs:    dense   smooth      PW
     Min        1052    1052    280                63010    63010    8694
     Max        1053    1053    281                63013    63013    8697
     Sum        6317    6317   1685               378069   378069   52179



     bravais-lattice index     =            0
     lattice parameter (alat)  =      16.8375  a.u.
     unit-cell volume          =    4773.4208 (a.u.)^3
     number of atoms/cell      =            2
     number of atomic types    =            2
     number of electrons       =        30.00
     number of Kohn-Sham states=           19
     kinetic-energy cutoff     =      70.0000  Ry
     charge density cutoff     =     280.0000  Ry
     convergence threshold     =      1.0E-06
     mixing beta               =       0.7000
     number of iterations used =            8  plain     mixing
     Exchange-correlation      = PBE ( 1  4  3  4 0 0)

     celldm(1)=  16.837460  celldm(2)=   0.000000  celldm(3)=   0.000000
     celldm(4)=   0.000000  celldm(5)=   0.000000  celldm(6)=   0.000000

     crystal axes: (cart. coord. in units of alat)
               a(1) = (   1.000000   0.000000   0.000000 )  
               a(2) = (   0.000000   1.000000   0.000000 )  
               a(3) = (   0.000000   0.000000   1.000000 )  

     reciprocal axes: (cart. coord. in units 2 pi/alat)
               b(1) = (  1.000000  0.000000  0.000000 )  
               b(2) = (  0.000000  1.000000  0.000000 )  
               b(3) = (  0.000000  0.000000  1.000000 )  


     PseudoPot. # 1 for Mn read from file:
     /home/cristian/Escritorio/Proyecto_Grafeno/pseudopotenciales/Mn.pbe-spn-rrkjus_psl.0.3.1.UPF
     MD5 check sum: e1cac159bdd2ba70c18e85765a5d4279
     Pseudo is Ultrasoft + core correction, Zval = 15.0
     Generated using "atomic" code by A. Dal Corso v.6.2.2
     Using radial grid of 1187 points,  6 beta functions with: 
                l(1) =   0
                l(2) =   0
                l(3) =   1
                l(4) =   1
                l(5) =   2
                l(6) =   2
     Q(r) pseudized with 0 coefficients 


     PseudoPot. # 2 for Mn read from file:
     /home/cristian/Escritorio/Proyecto_Grafeno/pseudopotenciales/Mn.pbe-spn-rrkjus_psl.0.3.1.UPF
     MD5 check sum: e1cac159bdd2ba70c18e85765a5d4279
     Pseudo is Ultrasoft + core correction, Zval = 15.0
     Generated using "atomic" code by A. Dal Corso v.6.2.2
     Using radial grid of 1187 points,  6 beta functions with: 
                l(1) =   0
                l(2) =   0
                l(3) =   1
                l(4) =   1
                l(5) =   2
                l(6) =   2
     Q(r) pseudized with 0 coefficients 


     atomic species   valence    mass     pseudopotential
        Mn1           15.00    54.93804     Mn( 1.00)
        Mn2           15.00    54.93804     Mn( 1.00)

     Starting magnetic structure 
     atomic species   magnetization
        Mn1          0.100
        Mn2         -0.100

     48 Sym. Ops., with inversion, found



   Cartesian axes

     site n.     atom                  positions (alat units)
         1           Mn1 tau(   1) = (   0.0000000   0.0000000   0.0000000  )
         2           Mn2 tau(   2) = (   0.5000000   0.5000000   0.5000000  )

     number of k points=    20  Methfessel-Paxton smearing, width (Ry)=  0.0300
                       cart. coord. in units 2pi/alat
        k(    1) = (   0.0625000   0.0625000   0.0625000), wk =   0.0156250
        k(    2) = (   0.0625000   0.0625000   0.1875000), wk =   0.0468750
        k(    3) = (   0.0625000   0.0625000   0.3125000), wk =   0.0468750
        k(    4) = (   0.0625000   0.0625000   0.4375000), wk =   0.0468750
        k(    5) = (   0.0625000   0.1875000   0.1875000), wk =   0.0468750
        k(    6) = (   0.0625000   0.1875000   0.3125000), wk =   0.0937500
        k(    7) = (   0.0625000   0.1875000   0.4375000), wk =   0.0937500
        k(    8) = (   0.0625000   0.3125000   0.3125000), wk =   0.0468750
        k(    9) = (   0.0625000   0.3125000   0.4375000), wk =   0.0937500
        k(   10) = (   0.0625000   0.4375000   0.4375000), wk =   0.0468750
        k(   11) = (   0.1875000   0.1875000   0.1875000), wk =   0.0156250
        k(   12) = (   0.1875000   0.1875000   0.3125000), wk =   0.0468750
        k(   13) = (   0.1875000   0.1875000   0.4375000), wk =   0.0468750
        k(   14) = (   0.1875000   0.3125000   0.3125000), wk =   0.0468750
        k(   15) = (   0.1875000   0.3125000   0.4375000), wk =   0.0937500
        k(   16) = (   0.1875000   0.4375000   0.4375000), wk =   0.0468750
        k(   17) = (   0.3125000   0.3125000   0.3125000), wk =   0.0156250
        k(   18) = (   0.3125000   0.3125000   0.4375000), wk =   0.0468750
        k(   19) = (   0.3125000   0.4375000   0.4375000), wk =   0.0468750
        k(   20) = (   0.4375000   0.4375000   0.4375000), wk =   0.0156250

     Dense  grid:   378069 G-vectors     FFT dimensions: (  90,  90,  90)

     Estimated max dynamical RAM per process >     346.13 MB

     Estimated total dynamical RAM >       2.03 GB
     Generating pointlists ...
     new r_m :   0.3572 (alat units)  6.0149 (a.u.) for type    1
     new r_m :   0.3572 (alat units)  6.0149 (a.u.) for type    2

     Check: negative core charge=   -0.000005

     Initial potential from superposition of free atoms

     starting charge   29.99900, renormalised to   30.00000

     negative rho (up, down):  1.827E-08 6.288E-03
     Starting wfcs are   20 randomized atomic wfcs

     total cpu time spent up to now is       11.0 secs

     Self-consistent Calculation

     iteration #  1     ecut=    70.00 Ry     beta= 0.70
     Davidson diagonalization with overlap
     ethr =  1.00E-02,  avg # of iterations =  1.0

     negative rho (up, down):  1.034E-04 1.529E-02

     total cpu time spent up to now is       32.6 secs

     total energy              =    -424.94349074 Ry
     Harris-Foulkes estimate   =    -427.04619594 Ry
     estimated scf accuracy    <       2.74475293 Ry

     total magnetization       =    -0.00 Bohr mag/cell
     absolute magnetization    =     5.98 Bohr mag/cell

     iteration #  2     ecut=    70.00 Ry     beta= 0.70
     Davidson diagonalization with overlap
     ethr =  9.15E-03,  avg # of iterations = 11.0

     total cpu time spent up to now is      106.3 secs

     total energy              =    -423.40720856 Ry
     Harris-Foulkes estimate   =    -433.91702408 Ry
     estimated scf accuracy    <      47.21958963 Ry

     total magnetization       =    -0.03 Bohr mag/cell
     absolute magnetization    =     0.53 Bohr mag/cell

     iteration #  3     ecut=    70.00 Ry     beta= 0.70
     Davidson diagonalization with overlap
     ethr =  9.15E-03,  avg # of iterations =  7.9

     total cpu time spent up to now is      146.7 secs

     total energy              =    -424.77396249 Ry
     Harris-Foulkes estimate   =    -425.64213554 Ry
     estimated scf accuracy    <       7.39000771 Ry

     total magnetization       =    -0.53 Bohr mag/cell
     absolute magnetization    =     5.18 Bohr mag/cell

     iteration #  4     ecut=    70.00 Ry     beta= 0.70
     Davidson diagonalization with overlap
     ethr =  9.15E-03,  avg # of iterations =  6.2

     total cpu time spent up to now is      177.3 secs

     total energy              =    -426.52020439 Ry
     Harris-Foulkes estimate   =    -426.56468580 Ry
     estimated scf accuracy    <       0.37173139 Ry

     total magnetization       =     2.22 Bohr mag/cell
     absolute magnetization    =     5.05 Bohr mag/cell

     iteration #  5     ecut=    70.00 Ry     beta= 0.70
     Davidson diagonalization with overlap
     ethr =  1.24E-03,  avg # of iterations =  6.4

     total cpu time spent up to now is      213.8 secs

     total energy              =    -426.98052307 Ry
     Harris-Foulkes estimate   =    -426.97650844 Ry
     estimated scf accuracy    <       1.03305393 Ry

     total magnetization       =     0.47 Bohr mag/cell
     absolute magnetization    =     8.57 Bohr mag/cell

     iteration #  6     ecut=    70.00 Ry     beta= 0.70
     Davidson diagonalization with overlap
     ethr =  1.24E-03,  avg # of iterations =  1.1

     negative rho (up, down):  0.000E+00 3.786E-04

     total cpu time spent up to now is      235.5 secs

     total energy              =    -427.00235916 Ry
     Harris-Foulkes estimate   =    -426.98330687 Ry
     estimated scf accuracy    <       1.31284365 Ry

     total magnetization       =     0.73 Bohr mag/cell
     absolute magnetization    =     8.27 Bohr mag/cell

     iteration #  7     ecut=    70.00 Ry     beta= 0.70
     Davidson diagonalization with overlap
     ethr =  1.24E-03,  avg # of iterations =  1.0

     total cpu time spent up to now is      257.5 secs

     total energy              =    -426.99718737 Ry
     Harris-Foulkes estimate   =    -427.13283197 Ry
     estimated scf accuracy    <       4.10094705 Ry

     total magnetization       =    -2.08 Bohr mag/cell
     absolute magnetization    =     5.70 Bohr mag/cell

     iteration #  8     ecut=    70.00 Ry     beta= 0.70
     Davidson diagonalization with overlap
     ethr =  1.24E-03,  avg # of iterations =  1.4

     total cpu time spent up to now is      280.1 secs

     total energy              =    -426.93645396 Ry
     Harris-Foulkes estimate   =    -427.01077237 Ry
     estimated scf accuracy    <       3.36504828 Ry

     total magnetization       =    -1.93 Bohr mag/cell
     absolute magnetization    =     5.71 Bohr mag/cell

     iteration #  9     ecut=    70.00 Ry     beta= 0.70
     Davidson diagonalization with overlap
     ethr =  1.24E-03,  avg # of iterations =  1.2

     total cpu time spent up to now is      302.4 secs

     total energy              =    -426.93126991 Ry
     Harris-Foulkes estimate   =    -426.93969969 Ry
     estimated scf accuracy    <       3.07165312 Ry

     total magnetization       =    -1.88 Bohr mag/cell
     absolute magnetization    =     5.70 Bohr mag/cell

     iteration # 10     ecut=    70.00 Ry     beta= 0.70
     Davidson diagonalization with overlap
     ethr =  1.24E-03,  avg # of iterations =  1.3

     total cpu time spent up to now is      324.9 secs

     total energy              =    -426.96272222 Ry
     Harris-Foulkes estimate   =    -426.93543865 Ry
     estimated scf accuracy    <       3.04343970 Ry

     total magnetization       =    -1.76 Bohr mag/cell
     absolute magnetization    =     5.82 Bohr mag/cell

     iteration # 11     ecut=    70.00 Ry     beta= 0.70
     Davidson diagonalization with overlap
     ethr =  1.24E-03,  avg # of iterations =  1.0

     total cpu time spent up to now is      346.9 secs

     total energy              =    -427.06221403 Ry
     Harris-Foulkes estimate   =    -426.98442185 Ry
     estimated scf accuracy    <       2.82777075 Ry

     total magnetization       =    -1.58 Bohr mag/cell
     absolute magnetization    =     8.03 Bohr mag/cell

     iteration # 12     ecut=    70.00 Ry     beta= 0.70
     Davidson diagonalization with overlap
     ethr =  1.24E-03,  avg # of iterations =  1.1

     negative rho (up, down):  0.000E+00 2.438E-02

     total cpu time spent up to now is      369.6 secs

     total energy              =    -427.15601448 Ry
     Harris-Foulkes estimate   =    -427.12801086 Ry
     estimated scf accuracy    <       1.91032457 Ry

     total magnetization       =    -1.98 Bohr mag/cell
     absolute magnetization    =    10.02 Bohr mag/cell

     iteration # 13     ecut=    70.00 Ry     beta= 0.70
     Davidson diagonalization with overlap
     ethr =  1.24E-03,  avg # of iterations =  1.0

     negative rho (up, down):  0.000E+00 7.331E-02

     total cpu time spent up to now is      391.8 secs

     total energy              =    -426.95162370 Ry
     Harris-Foulkes estimate   =    -427.16168779 Ry
     estimated scf accuracy    <       2.48918514 Ry

     total magnetization       =    -2.17 Bohr mag/cell
     absolute magnetization    =     9.99 Bohr mag/cell

     iteration # 14     ecut=    70.00 Ry     beta= 0.70
     Davidson diagonalization with overlap
     ethr =  1.24E-03,  avg # of iterations =  2.2

     negative rho (up, down):  0.000E+00 4.938E-05

     total cpu time spent up to now is      417.1 secs

     total energy              =    -427.10221732 Ry
     Harris-Foulkes estimate   =    -427.07314973 Ry
     estimated scf accuracy    <       0.27431049 Ry

     total magnetization       =    -0.41 Bohr mag/cell
     absolute magnetization    =    10.12 Bohr mag/cell

     iteration # 15     ecut=    70.00 Ry     beta= 0.70
     Davidson diagonalization with overlap
     ethr =  9.14E-04,  avg # of iterations =  1.1

     negative rho (up, down):  0.000E+00 6.749E-03

     total cpu time spent up to now is      439.6 secs

     total energy              =    -427.09266018 Ry
     Harris-Foulkes estimate   =    -427.10905341 Ry
     estimated scf accuracy    <       0.19176772 Ry

     total magnetization       =    -0.44 Bohr mag/cell
     absolute magnetization    =    10.12 Bohr mag/cell

     iteration # 16     ecut=    70.00 Ry     beta= 0.70
     Davidson diagonalization with overlap
     ethr =  6.39E-04,  avg # of iterations =  2.5

     negative rho (up, down):  0.000E+00 1.546E-02

     total cpu time spent up to now is      463.5 secs

     total energy              =    -427.11108708 Ry
     Harris-Foulkes estimate   =    -427.10120708 Ry
     estimated scf accuracy    <       0.17294258 Ry

     total magnetization       =    -0.31 Bohr mag/cell
     absolute magnetization    =    10.03 Bohr mag/cell

     iteration # 17     ecut=    70.00 Ry     beta= 0.70
     Davidson diagonalization with overlap
     ethr =  5.76E-04,  avg # of iterations =  1.1

     negative rho (up, down):  0.000E+00 2.178E-02

     total cpu time spent up to now is      486.9 secs

     total energy              =    -427.12701738 Ry
     Harris-Foulkes estimate   =    -427.11716866 Ry
     estimated scf accuracy    <       0.14978298 Ry

     total magnetization       =     0.03 Bohr mag/cell
     absolute magnetization    =    10.02 Bohr mag/cell

     iteration # 18     ecut=    70.00 Ry     beta= 0.70
     Davidson diagonalization with overlap
     ethr =  4.99E-04,  avg # of iterations =  1.1

     negative rho (up, down):  0.000E+00 1.969E-02

     total cpu time spent up to now is      510.4 secs

     total energy              =    -427.12737090 Ry
     Harris-Foulkes estimate   =    -427.12802697 Ry
     estimated scf accuracy    <       0.14955189 Ry

     total magnetization       =    -0.15 Bohr mag/cell
     absolute magnetization    =    10.03 Bohr mag/cell

     iteration # 19     ecut=    70.00 Ry     beta= 0.70
     Davidson diagonalization with overlap
     ethr =  4.99E-04,  avg # of iterations =  1.0

     negative rho (up, down):  0.000E+00 1.783E-02

     total cpu time spent up to now is      534.9 secs

     total energy              =    -427.12867984 Ry
     Harris-Foulkes estimate   =    -427.12783734 Ry
     estimated scf accuracy    <       0.16881713 Ry

     total magnetization       =    -0.29 Bohr mag/cell
     absolute magnetization    =    10.03 Bohr mag/cell

     iteration # 20     ecut=    70.00 Ry     beta= 0.70
     Davidson diagonalization with overlap
     ethr =  4.99E-04,  avg # of iterations =  1.0

     negative rho (up, down):  1.105E-05 1.988E-02

     total cpu time spent up to now is      559.6 secs

     total energy              =    -427.12683888 Ry
     Harris-Foulkes estimate   =    -427.13761515 Ry
     estimated scf accuracy    <       0.21139107 Ry

     total magnetization       =     0.61 Bohr mag/cell
     absolute magnetization    =    10.04 Bohr mag/cell

     iteration # 21     ecut=    70.00 Ry     beta= 0.70
     Davidson diagonalization with overlap
     ethr =  4.99E-04,  avg # of iterations =  1.0

     negative rho (up, down):  2.999E-07 1.638E-02

     total cpu time spent up to now is      582.8 secs

     total energy              =    -427.10405132 Ry
     Harris-Foulkes estimate   =    -427.12900636 Ry
     estimated scf accuracy    <       0.08858720 Ry

     total magnetization       =     0.25 Bohr mag/cell
     absolute magnetization    =    10.06 Bohr mag/cell

     iteration # 22     ecut=    70.00 Ry     beta= 0.70
     Davidson diagonalization with overlap
     ethr =  2.95E-04,  avg # of iterations =  2.5

     negative rho (up, down):  0.000E+00 2.408E-02

     total cpu time spent up to now is      609.9 secs

     total energy              =    -427.11125767 Ry
     Harris-Foulkes estimate   =    -427.11368180 Ry
     estimated scf accuracy    <       0.04635799 Ry

     total magnetization       =    -0.25 Bohr mag/cell
     absolute magnetization    =    10.10 Bohr mag/cell

     iteration # 23     ecut=    70.00 Ry     beta= 0.70
     Davidson diagonalization with overlap
     ethr =  1.55E-04,  avg # of iterations =  1.9

     negative rho (up, down):  0.000E+00 2.736E-02

     total cpu time spent up to now is      632.4 secs

     total energy              =    -427.11327836 Ry
     Harris-Foulkes estimate   =    -427.11534492 Ry
     estimated scf accuracy    <       0.04403735 Ry

     total magnetization       =    -0.32 Bohr mag/cell
     absolute magnetization    =    10.11 Bohr mag/cell

     iteration # 24     ecut=    70.00 Ry     beta= 0.70
     Davidson diagonalization with overlap
     ethr =  1.47E-04,  avg # of iterations =  1.2

     negative rho (up, down):  0.000E+00 2.474E-02

     total cpu time spent up to now is      654.7 secs

     total energy              =    -427.11401983 Ry
     Harris-Foulkes estimate   =    -427.11459261 Ry
     estimated scf accuracy    <       0.03416791 Ry

     total magnetization       =    -0.29 Bohr mag/cell
     absolute magnetization    =    10.11 Bohr mag/cell

     iteration # 25     ecut=    70.00 Ry     beta= 0.70
     Davidson diagonalization with overlap
     ethr =  1.14E-04,  avg # of iterations =  1.1

     negative rho (up, down):  0.000E+00 2.114E-02

     total cpu time spent up to now is      677.3 secs

     total energy              =    -427.11369273 Ry
     Harris-Foulkes estimate   =    -427.11438041 Ry
     estimated scf accuracy    <       0.02042056 Ry

     total magnetization       =    -0.22 Bohr mag/cell
     absolute magnetization    =    10.11 Bohr mag/cell

     iteration # 26     ecut=    70.00 Ry     beta= 0.70
     Davidson diagonalization with overlap
     ethr =  6.81E-05,  avg # of iterations =  1.2

     negative rho (up, down):  0.000E+00 2.119E-02

     total cpu time spent up to now is      700.2 secs

     total energy              =    -427.11597545 Ry
     Harris-Foulkes estimate   =    -427.11614187 Ry
     estimated scf accuracy    <       0.00606265 Ry

     total magnetization       =    -0.12 Bohr mag/cell
     absolute magnetization    =    10.13 Bohr mag/cell

     iteration # 27     ecut=    70.00 Ry     beta= 0.70
     Davidson diagonalization with overlap
     ethr =  2.02E-05,  avg # of iterations =  3.1

     negative rho (up, down):  0.000E+00 2.105E-02

     total cpu time spent up to now is      724.3 secs

     total energy              =    -427.11910853 Ry
     Harris-Foulkes estimate   =    -427.11973020 Ry
     estimated scf accuracy    <       0.00637635 Ry

     total magnetization       =    -0.16 Bohr mag/cell
     absolute magnetization    =    10.16 Bohr mag/cell

     iteration # 28     ecut=    70.00 Ry     beta= 0.70
     Davidson diagonalization with overlap
     ethr =  2.02E-05,  avg # of iterations =  1.4

     negative rho (up, down):  0.000E+00 1.969E-02

     total cpu time spent up to now is      746.9 secs

     total energy              =    -427.11943034 Ry
     Harris-Foulkes estimate   =    -427.11938269 Ry
     estimated scf accuracy    <       0.00089578 Ry

     total magnetization       =    -0.08 Bohr mag/cell
     absolute magnetization    =    10.16 Bohr mag/cell

     iteration # 29     ecut=    70.00 Ry     beta= 0.70
     Davidson diagonalization with overlap
     ethr =  2.99E-06,  avg # of iterations =  6.4

     negative rho (up, down):  0.000E+00 1.941E-02

     total cpu time spent up to now is      779.4 secs

     total energy              =    -427.12262096 Ry
     Harris-Foulkes estimate   =    -427.12292606 Ry
     estimated scf accuracy    <       0.00419612 Ry

     total magnetization       =    -0.04 Bohr mag/cell
     absolute magnetization    =    10.20 Bohr mag/cell

     iteration # 30     ecut=    70.00 Ry     beta= 0.70
     Davidson diagonalization with overlap
     ethr =  2.99E-06,  avg # of iterations =  2.1

     negative rho (up, down):  0.000E+00 1.933E-02

     total cpu time spent up to now is      807.3 secs

     total energy              =    -427.12313490 Ry
     Harris-Foulkes estimate   =    -427.12276883 Ry
     estimated scf accuracy    <       0.00112540 Ry

     total magnetization       =    -0.01 Bohr mag/cell
     absolute magnetization    =    10.19 Bohr mag/cell

     iteration # 31     ecut=    70.00 Ry     beta= 0.70
     Davidson diagonalization with overlap
     ethr =  2.99E-06,  avg # of iterations =  2.0

     negative rho (up, down):  0.000E+00 2.109E-02

     total cpu time spent up to now is      832.7 secs

     total energy              =    -427.12293951 Ry
     Harris-Foulkes estimate   =    -427.12330269 Ry
     estimated scf accuracy    <       0.00395295 Ry

     total magnetization       =     0.01 Bohr mag/cell
     absolute magnetization    =    10.20 Bohr mag/cell

     iteration # 32     ecut=    70.00 Ry     beta= 0.70
     Davidson diagonalization with overlap
     ethr =  2.99E-06,  avg # of iterations =  2.0

     negative rho (up, down):  0.000E+00 1.956E-02

     total cpu time spent up to now is      858.9 secs

     total energy              =    -427.12314460 Ry
     Harris-Foulkes estimate   =    -427.12303720 Ry
     estimated scf accuracy    <       0.00189197 Ry

     total magnetization       =     0.03 Bohr mag/cell
     absolute magnetization    =    10.20 Bohr mag/cell

     iteration # 33     ecut=    70.00 Ry     beta= 0.70
     Davidson diagonalization with overlap
     ethr =  2.99E-06,  avg # of iterations =  2.0

     negative rho (up, down):  0.000E+00 2.158E-02

     total cpu time spent up to now is      886.6 secs

     total energy              =    -427.12130513 Ry
     Harris-Foulkes estimate   =    -427.12323871 Ry
     estimated scf accuracy    <       0.00383598 Ry

     total magnetization       =     0.02 Bohr mag/cell
     absolute magnetization    =    10.20 Bohr mag/cell

     iteration # 34     ecut=    70.00 Ry     beta= 0.70
     Davidson diagonalization with overlap
     ethr =  2.99E-06,  avg # of iterations =  3.5

     negative rho (up, down):  0.000E+00 2.074E-02

     total cpu time spent up to now is      927.7 secs

     total energy              =    -427.12295673 Ry
     Harris-Foulkes estimate   =    -427.12325173 Ry
     estimated scf accuracy    <       0.00364301 Ry

     total magnetization       =    -0.04 Bohr mag/cell
     absolute magnetization    =    10.16 Bohr mag/cell

     iteration # 35     ecut=    70.00 Ry     beta= 0.70
     Davidson diagonalization with overlap
     ethr =  2.99E-06,  avg # of iterations =  1.0

     negative rho (up, down):  0.000E+00 1.994E-02

     total cpu time spent up to now is      951.7 secs

     total energy              =    -427.12261600 Ry
     Harris-Foulkes estimate   =    -427.12302049 Ry
     estimated scf accuracy    <       0.00155841 Ry

     total magnetization       =    -0.02 Bohr mag/cell
     absolute magnetization    =    10.16 Bohr mag/cell

     iteration # 36     ecut=    70.00 Ry     beta= 0.70
     Davidson diagonalization with overlap
     ethr =  2.99E-06,  avg # of iterations =  2.0

     negative rho (up, down):  0.000E+00 1.991E-02

     total cpu time spent up to now is      978.9 secs

     total energy              =    -427.12278529 Ry
     Harris-Foulkes estimate   =    -427.12281784 Ry
     estimated scf accuracy    <       0.00006078 Ry

     total magnetization       =     0.00 Bohr mag/cell
     absolute magnetization    =    10.18 Bohr mag/cell

     iteration # 37     ecut=    70.00 Ry     beta= 0.70
     Davidson diagonalization with overlap
     ethr =  2.03E-07,  avg # of iterations =  1.8

     negative rho (up, down):  0.000E+00 2.148E-02

     total cpu time spent up to now is     1003.8 secs

     total energy              =    -427.12273774 Ry
     Harris-Foulkes estimate   =    -427.12279402 Ry
     estimated scf accuracy    <       0.00009328 Ry

     total magnetization       =    -0.00 Bohr mag/cell
     absolute magnetization    =    10.18 Bohr mag/cell

     iteration # 38     ecut=    70.00 Ry     beta= 0.70
     Davidson diagonalization with overlap
     ethr =  2.03E-07,  avg # of iterations =  3.0

     negative rho (up, down):  0.000E+00 2.145E-02

     total cpu time spent up to now is     1032.6 secs

     total energy              =    -427.12283965 Ry
     Harris-Foulkes estimate   =    -427.12285582 Ry
     estimated scf accuracy    <       0.00001505 Ry

     total magnetization       =     0.00 Bohr mag/cell
     absolute magnetization    =    10.18 Bohr mag/cell

     iteration # 39     ecut=    70.00 Ry     beta= 0.70
     Davidson diagonalization with overlap
     ethr =  5.02E-08,  avg # of iterations =  2.3

     negative rho (up, down):  0.000E+00 2.219E-02

     total cpu time spent up to now is     1058.3 secs

     total energy              =    -427.12276288 Ry
     Harris-Foulkes estimate   =    -427.12284712 Ry
     estimated scf accuracy    <       0.00003103 Ry

     total magnetization       =    -0.01 Bohr mag/cell
     absolute magnetization    =    10.18 Bohr mag/cell

     iteration # 40     ecut=    70.00 Ry     beta= 0.70
     Davidson diagonalization with overlap
     ethr =  5.02E-08,  avg # of iterations =  3.1

     negative rho (up, down):  0.000E+00 2.216E-02

     total cpu time spent up to now is     1090.0 secs

     total energy              =    -427.12280205 Ry
     Harris-Foulkes estimate   =    -427.12279446 Ry
     estimated scf accuracy    <       0.00030198 Ry

     total magnetization       =    -0.03 Bohr mag/cell
     absolute magnetization    =    10.18 Bohr mag/cell

     iteration # 41     ecut=    70.00 Ry     beta= 0.70
     Davidson diagonalization with overlap
     ethr =  5.02E-08,  avg # of iterations =  1.1

     negative rho (up, down):  0.000E+00 2.193E-02

     total cpu time spent up to now is     1111.0 secs

     total energy              =    -427.12281437 Ry
     Harris-Foulkes estimate   =    -427.12280242 Ry
     estimated scf accuracy    <       0.00027484 Ry

     total magnetization       =    -0.03 Bohr mag/cell
     absolute magnetization    =    10.18 Bohr mag/cell

     iteration # 42     ecut=    70.00 Ry     beta= 0.70
     Davidson diagonalization with overlap
     ethr =  5.02E-08,  avg # of iterations =  1.5

     negative rho (up, down):  0.000E+00 2.145E-02

     total cpu time spent up to now is     1132.4 secs

     total energy              =    -427.12280456 Ry
     Harris-Foulkes estimate   =    -427.12281641 Ry
     estimated scf accuracy    <       0.00018360 Ry

     total magnetization       =    -0.02 Bohr mag/cell
     absolute magnetization    =    10.18 Bohr mag/cell

     iteration # 43     ecut=    70.00 Ry     beta= 0.70
     Davidson diagonalization with overlap
     ethr =  5.02E-08,  avg # of iterations =  3.0

     negative rho (up, down):  0.000E+00 2.148E-02

     total cpu time spent up to now is     1164.7 secs

     total energy              =    -427.12285256 Ry
     Harris-Foulkes estimate   =    -427.12285288 Ry
     estimated scf accuracy    <       0.00000215 Ry

     total magnetization       =    -0.00 Bohr mag/cell
     absolute magnetization    =    10.18 Bohr mag/cell

     iteration # 44     ecut=    70.00 Ry     beta= 0.70
     Davidson diagonalization with overlap
     ethr =  7.18E-09,  avg # of iterations =  2.0

     negative rho (up, down):  0.000E+00 2.151E-02

     Magnetic moment per site:
     atom:    1    charge:   14.9631    magn:    5.0144    constr:    0.0000
     atom:    2    charge:   14.9645    magn:   -5.0131    constr:    0.0000

     total cpu time spent up to now is     1186.6 secs

     End of self-consistent calculation

 ------ SPIN UP ------------


          k = 0.0625 0.0625 0.0625 ( 47228 PWs)   bands (ev):

   -86.5694 -81.1808 -55.2712 -55.2712 -55.2712 -50.0004 -50.0004 -50.0004
    -7.2676  -7.2676  -7.2654  -7.2654  -7.2654  -4.5836  -3.5507  -2.8341
    -2.8285  -2.8285  -2.8285

          k = 0.0625 0.0625 0.1875 ( 47258 PWs)   bands (ev):

   -86.5694 -81.1808 -55.2712 -55.2712 -55.2712 -50.0004 -50.0004 -50.0004
    -7.2676  -7.2676  -7.2654  -7.2654  -7.2654  -4.5816  -3.5490  -2.8340
    -2.8335  -2.8286  -2.8286

          k = 0.0625 0.0625 0.3125 ( 47215 PWs)   bands (ev):

   -86.5694 -81.1808 -55.2712 -55.2712 -55.2712 -50.0004 -50.0004 -50.0004
    -7.2676  -7.2675  -7.2654  -7.2654  -7.2654  -4.5788  -3.5466  -2.8340
    -2.8289  -2.8289  -2.8284

          k = 0.0625 0.0625 0.4375 ( 47210 PWs)   bands (ev):

   -86.5694 -81.1808 -55.2712 -55.2712 -55.2712 -50.0004 -50.0004 -50.0004
    -7.2676  -7.2675  -7.2654  -7.2654  -7.2654  -4.5768  -3.5448  -2.8340
    -2.8291  -2.8290  -2.8284

          k = 0.0625 0.1875 0.1875 ( 47234 PWs)   bands (ev):

   -86.5694 -81.1808 -55.2712 -55.2712 -55.2712 -50.0004 -50.0004 -50.0004
    -7.2676  -7.2676  -7.2654  -7.2654  -7.2654  -4.5798  -3.5467  -2.8338
    -2.8288  -2.8286  -2.8286

          k = 0.0625 0.1875 0.3125 ( 47234 PWs)   bands (ev):

   -86.5694 -81.1808 -55.2712 -55.2712 -55.2712 -50.0004 -50.0004 -50.0004
    -7.2676  -7.2675  -7.2654  -7.2654  -7.2654  -4.5772  -3.5435  -2.8337
    -2.8290  -2.8288  -2.8286

          k = 0.0625 0.1875 0.4375 ( 47198 PWs)   bands (ev):

   -86.5694 -81.1808 -55.2712 -55.2712 -55.2712 -50.0004 -50.0004 -50.0004
    -7.2676  -7.2675  -7.2654  -7.2654  -7.2654  -4.5753  -3.5412  -2.8337
    -2.8292  -2.8290  -2.8286

          k = 0.0625 0.3125 0.3125 ( 47193 PWs)   bands (ev):

   -86.5694 -81.1808 -55.2712 -55.2712 -55.2712 -50.0004 -50.0004 -50.0004
    -7.2676  -7.2675  -7.2654  -7.2654  -7.2654  -4.5748  -3.5391  -2.8334
    -2.8292  -2.8288  -2.8288

          k = 0.0625 0.3125 0.4375 ( 47203 PWs)   bands (ev):

   -86.5694 -81.1808 -55.2712 -55.2712 -55.2712 -50.0004 -50.0004 -50.0004
    -7.2676  -7.2675  -7.2654  -7.2654  -7.2654  -4.5731  -3.5360  -2.8333
    -2.8293  -2.8290  -2.8288

          k = 0.0625 0.4375 0.4375 ( 47212 PWs)   bands (ev):

   -86.5694 -81.1808 -55.2712 -55.2712 -55.2712 -50.0004 -50.0004 -50.0004
    -7.2675  -7.2675  -7.2654  -7.2654  -7.2654  -4.5716  -3.5323  -2.8332
    -2.8294  -2.8289  -2.8289

          k = 0.1875 0.1875 0.1875 ( 47201 PWs)   bands (ev):

   -86.5694 -81.1808 -55.2712 -55.2712 -55.2712 -50.0004 -50.0004 -50.0004
    -7.2675  -7.2675  -7.2654  -7.2654  -7.2654  -4.5780  -3.5441  -2.8333
    -2.8288  -2.8288  -2.8287

          k = 0.1875 0.1875 0.3125 ( 47234 PWs)   bands (ev):

   -86.5694 -81.1808 -55.2712 -55.2712 -55.2712 -50.0004 -50.0004 -50.0004
    -7.2675  -7.2675  -7.2654  -7.2654  -7.2654  -4.5756  -3.5403  -2.8333
    -2.8291  -2.8289  -2.8287

          k = 0.1875 0.1875 0.4375 ( 47206 PWs)   bands (ev):

   -86.5694 -81.1808 -55.2712 -55.2712 -55.2712 -50.0004 -50.0004 -50.0004
    -7.2675  -7.2675  -7.2654  -7.2654  -7.2654  -4.5738  -3.5377  -2.8333
    -2.8292  -2.8290  -2.8287

          k = 0.1875 0.3125 0.3125 ( 47206 PWs)   bands (ev):

   -86.5694 -81.1808 -55.2712 -55.2712 -55.2712 -50.0004 -50.0004 -50.0004
    -7.2675  -7.2675  -7.2654  -7.2654  -7.2654  -4.5733  -3.5359  -2.8329
    -2.8310  -2.8292  -2.8290

          k = 0.1875 0.3125 0.4375 ( 47173 PWs)   bands (ev):

   -86.5694 -81.1808 -55.2712 -55.2712 -55.2712 -50.0004 -50.0004 -50.0004
    -7.2675  -7.2675  -7.2654  -7.2654  -7.2654  -4.5717  -3.5327  -2.8329
    -2.8294  -2.8291  -2.8290

          k = 0.1875 0.4375 0.4375 ( 47201 PWs)   bands (ev):

   -86.5694 -81.1808 -55.2712 -55.2712 -55.2712 -50.0004 -50.0004 -50.0004
    -7.2675  -7.2675  -7.2654  -7.2654  -7.2654  -4.5702  -3.5291  -2.8327
    -2.8295  -2.8292  -2.8291

          k = 0.3125 0.3125 0.3125 ( 47237 PWs)   bands (ev):

   -86.5694 -81.1808 -55.2712 -55.2712 -55.2712 -50.0004 -50.0004 -50.0004
    -7.2675  -7.2675  -7.2654  -7.2654  -7.2654  -4.5711  -3.5312  -2.8323
    -2.8293  -2.8293  -2.8291

          k = 0.3125 0.3125 0.4375 ( 47189 PWs)   bands (ev):

   -86.5694 -81.1808 -55.2712 -55.2712 -55.2712 -50.0004 -50.0004 -50.0004
    -7.2675  -7.2675  -7.2654  -7.2654  -7.2654  -4.5696  -3.5278  -2.8322
    -2.8295  -2.8293  -2.8292

          k = 0.3125 0.4375 0.4375 ( 47185 PWs)   bands (ev):

   -86.5694 -81.1808 -55.2712 -55.2712 -55.2712 -50.0004 -50.0004 -50.0004
    -7.2675  -7.2675  -7.2654  -7.2654  -7.2654  -4.5682  -3.5244  -2.8320
    -2.8296  -2.8295  -2.8294

          k = 0.4375 0.4375 0.4375 ( 47186 PWs)   bands (ev):

   -86.5694 -81.1808 -55.2712 -55.2712 -55.2712 -50.0004 -50.0004 -50.0004
    -7.2675  -7.2675  -7.2654  -7.2654  -7.2654  -4.5667  -3.5211  -2.8315
    -2.8297  -2.8297  -2.8297

 ------ SPIN DOWN ----------


          k = 0.0625 0.0625 0.0625 ( 47228 PWs)   bands (ev):

   -86.5713 -81.1805 -55.2731 -55.2731 -55.2731 -50.0001 -50.0001 -50.0001
    -7.2685  -7.2685  -7.2685  -7.2668  -7.2668  -4.5838  -3.5497  -2.8312
    -2.8312  -2.8288  -2.8288

          k = 0.0625 0.0625 0.1875 ( 47258 PWs)   bands (ev):

   -86.5713 -81.1805 -55.2731 -55.2731 -55.2731 -50.0001 -50.0001 -50.0001
    -7.2685  -7.2685  -7.2685  -7.2668  -7.2668  -4.5818  -3.5480  -2.8313
    -2.8313  -2.8288  -2.8283

          k = 0.0625 0.0625 0.3125 ( 47215 PWs)   bands (ev):

   -86.5713 -81.1805 -55.2731 -55.2731 -55.2731 -50.0001 -50.0001 -50.0001
    -7.2685  -7.2685  -7.2685  -7.2668  -7.2668  -4.5790  -3.5455  -2.8316
    -2.8316  -2.8287  -2.8276

          k = 0.0625 0.0625 0.4375 ( 47210 PWs)   bands (ev):

   -86.5713 -81.1805 -55.2731 -55.2731 -55.2731 -50.0001 -50.0001 -50.0001
    -7.2685  -7.2685  -7.2685  -7.2668  -7.2668  -4.5770  -3.5438  -2.8317
    -2.8317  -2.8287  -2.8271

          k = 0.0625 0.1875 0.1875 ( 47234 PWs)   bands (ev):

   -86.5713 -81.1805 -55.2731 -55.2731 -55.2731 -50.0001 -50.0001 -50.0001
    -7.2685  -7.2685  -7.2685  -7.2668  -7.2668  -4.5800  -3.5457  -2.8315
    -2.8313  -2.8285  -2.8281

          k = 0.0625 0.1875 0.3125 ( 47234 PWs)   bands (ev):

   -86.5713 -81.1805 -55.2731 -55.2731 -55.2731 -50.0001 -50.0001 -50.0001
    -7.2685  -7.2685  -7.2685  -7.2668  -7.2668  -4.5774  -3.5425  -2.8317
    -2.8315  -2.8284  -2.8274

          k = 0.0625 0.1875 0.4375 ( 47198 PWs)   bands (ev):

   -86.5713 -81.1805 -55.2731 -55.2731 -55.2731 -50.0001 -50.0001 -50.0001
    -7.2685  -7.2685  -7.2685  -7.2668  -7.2667  -4.5755  -3.5402  -2.8318
    -2.8317  -2.8284  -2.8269

          k = 0.0625 0.3125 0.3125 ( 47193 PWs)   bands (ev):

   -86.5713 -81.1805 -55.2731 -55.2731 -55.2731 -50.0001 -50.0001 -50.0001
    -7.2685  -7.2685  -7.2685  -7.2668  -7.2667  -4.5750  -3.5381  -2.8319
    -2.8315  -2.8281  -2.8270

          k = 0.0625 0.3125 0.4375 ( 47203 PWs)   bands (ev):

   -86.5713 -81.1805 -55.2731 -55.2731 -55.2731 -50.0001 -50.0001 -50.0001
    -7.2685  -7.2685  -7.2685  -7.2668  -7.2667  -4.5733  -3.5350  -2.8320
    -2.8316  -2.8313  -2.8280

          k = 0.0625 0.4375 0.4375 ( 47212 PWs)   bands (ev):

   -86.5713 -81.1805 -55.2731 -55.2731 -55.2731 -50.0001 -50.0001 -50.0001
    -7.2685  -7.2685  -7.2685  -7.2668  -7.2667  -4.5718  -3.5313  -2.8321
    -2.8316  -2.8278  -2.8262

          k = 0.1875 0.1875 0.1875 ( 47201 PWs)   bands (ev):

   -86.5713 -81.1805 -55.2731 -55.2731 -55.2731 -50.0001 -50.0001 -50.0001
    -7.2685  -7.2685  -7.2685  -7.2668  -7.2668  -4.5782  -3.5431  -2.8315
    -2.8314  -2.8280  -2.8280

          k = 0.1875 0.1875 0.3125 ( 47234 PWs)   bands (ev):

   -86.5713 -81.1805 -55.2731 -55.2731 -55.2731 -50.0001 -50.0001 -50.0001
    -7.2685  -7.2685  -7.2685  -7.2668  -7.2668  -4.5758  -3.5393  -2.8317
    -2.8316  -2.8280  -2.8273

          k = 0.1875 0.1875 0.4375 ( 47206 PWs)   bands (ev):

   -86.5713 -81.1805 -55.2731 -55.2731 -55.2731 -50.0001 -50.0001 -50.0001
    -7.2685  -7.2685  -7.2685  -7.2668  -7.2667  -4.5740  -3.5367  -2.8319
    -2.8317  -2.8280  -2.8268

          k = 0.1875 0.3125 0.3125 ( 47206 PWs)   bands (ev):

   -86.5713 -81.1805 -55.2731 -55.2731 -55.2731 -50.0001 -50.0001 -50.0001
    -7.2685  -7.2685  -7.2685  -7.2668  -7.2667  -4.5735  -3.5348  -2.8319
    -2.8317  -2.8276  -2.8270

          k = 0.1875 0.3125 0.4375 ( 47173 PWs)   bands (ev):

   -86.5713 -81.1805 -55.2731 -55.2731 -55.2731 -50.0001 -50.0001 -50.0001
    -7.2685  -7.2685  -7.2685  -7.2668  -7.2667  -4.5719  -3.5316  -2.8320
    -2.8318  -2.8275  -2.8265

          k = 0.1875 0.4375 0.4375 ( 47201 PWs)   bands (ev):

   -86.5713 -81.1805 -55.2731 -55.2731 -55.2731 -50.0001 -50.0001 -50.0001
    -7.2685  -7.2685  -7.2685  -7.2668  -7.2667  -4.5704  -3.5280  -2.8322
    -2.8319  -2.8274  -2.8262

          k = 0.3125 0.3125 0.3125 ( 47237 PWs)   bands (ev):

   -86.5713 -81.1805 -55.2731 -55.2731 -55.2731 -50.0001 -50.0001 -50.0001
    -7.2685  -7.2685  -7.2685  -7.2667  -7.2667  -4.5713  -3.5301  -2.8320
    -2.8320  -2.8269  -2.8269

          k = 0.3125 0.3125 0.4375 ( 47189 PWs)   bands (ev):

   -86.5713 -81.1805 -55.2731 -55.2731 -55.2731 -50.0001 -50.0001 -50.0001
    -7.2685  -7.2685  -7.2685  -7.2667  -7.2667  -4.5698  -3.5268  -2.8322
    -2.8320  -2.8269  -2.8264

          k = 0.3125 0.4375 0.4375 ( 47185 PWs)   bands (ev):

   -86.5713 -81.1805 -55.2731 -55.2731 -55.2731 -50.0001 -50.0001 -50.0001
    -7.2685  -7.2685  -7.2685  -7.2667  -7.2667  -4.5684  -3.5234  -2.8323
    -2.8322  -2.8267  -2.8262

          k = 0.4375 0.4375 0.4375 ( 47186 PWs)   bands (ev):

   -86.5713 -81.1805 -55.2731 -55.2731 -55.2731 -50.0001 -50.0001 -50.0001
    -7.2685  -7.2685  -7.2685  -7.2667  -7.2667  -4.5669  -3.5201  -2.8324
    -2.8324  -2.8262  -2.8262

     the Fermi energy is    -3.1774 ev

!    total energy              =    -427.12285279 Ry
     Harris-Foulkes estimate   =    -427.12285316 Ry
     estimated scf accuracy    <       0.00000057 Ry

     The total energy is the sum of the following terms:

     one-electron contribution =    -533.16850017 Ry
     hartree contribution      =     258.72426200 Ry
     xc contribution           =     -55.42554487 Ry
     ewald contribution        =     -97.26259587 Ry
     smearing contrib. (-TS)   =       0.00952612 Ry

     total magnetization       =     0.00 Bohr mag/cell
     absolute magnetization    =    10.18 Bohr mag/cell

     convergence has been achieved in  44 iterations

     Writing output data file mn-70.save/

     init_run     :      9.26s CPU      9.61s WALL (       1 calls)
     electrons    :   1146.17s CPU   1175.62s WALL (       1 calls)

     Called by init_run:
     wfcinit      :      7.88s CPU      8.03s WALL (       1 calls)
     potinit      :      0.37s CPU      0.39s WALL (       1 calls)
     hinit0       :      0.55s CPU      0.56s WALL (       1 calls)

     Called by electrons:
     c_bands      :    923.12s CPU    937.19s WALL (      44 calls)
     sum_band     :    188.87s CPU    197.74s WALL (      44 calls)
     v_of_rho     :     11.77s CPU     12.03s WALL (      45 calls)
     newd         :     16.83s CPU     23.19s WALL (      45 calls)
     mix_rho      :      5.59s CPU      5.64s WALL (      44 calls)

     Called by c_bands:
     init_us_2    :     11.63s CPU     11.68s WALL (    3560 calls)
     cegterg      :    879.98s CPU    893.96s WALL (    1760 calls)

     Called by sum_band:
     sum_band:bec :      0.04s CPU      0.04s WALL (    1760 calls)
     addusdens    :     37.27s CPU     43.28s WALL (      44 calls)

     Called by *egterg:
     h_psi        :    627.85s CPU    641.72s WALL (    5952 calls)
     s_psi        :     47.93s CPU     48.00s WALL (    5952 calls)
     g_psi        :      3.05s CPU      3.05s WALL (    4152 calls)
     cdiaghg      :      3.78s CPU      3.79s WALL (    5912 calls)

     Called by h_psi:
     h_psi:pot    :    625.00s CPU    638.85s WALL (    5952 calls)
     h_psi:calbec :     67.62s CPU     67.95s WALL (    5952 calls)
     vloc_psi     :    503.12s CPU    516.63s WALL (    5952 calls)
     add_vuspsi   :     54.19s CPU     54.24s WALL (    5952 calls)

     General routines
     calbec       :     94.60s CPU     94.98s WALL (    7712 calls)
     fft          :      5.89s CPU      6.23s WALL (     943 calls)
     ffts         :      0.50s CPU      0.52s WALL (      88 calls)
     fftw         :    537.78s CPU    552.29s WALL (  195218 calls)

     Parallel routines
     fft_scatt_xy :     57.47s CPU     59.01s WALL (  196249 calls)
     fft_scatt_yz :    212.85s CPU    219.91s WALL (  196249 calls)

     PWSCF        :  19m17.10s CPU  19m47.31s WALL


   This run was terminated on:  14:31:56  17Mar2022            

=------------------------------------------------------------------------------=
   JOB DONE.
=------------------------------------------------------------------------------=
