
     Program PWSCF v.6.4.1 starts on 25May2022 at 14:17:37 

     This program is part of the open-source Quantum ESPRESSO suite
     for quantum simulation of materials; please cite
         "P. Giannozzi et al., J. Phys.:Condens. Matter 21 395502 (2009);
         "P. Giannozzi et al., J. Phys.:Condens. Matter 29 465901 (2017);
          URL http://www.quantum-espresso.org", 
     in publications or presentations arising from this work. More details at
     http://www.quantum-espresso.org/quote

     Parallel version (MPI), running on     6 processors

     MPI processes distributed on     1 nodes
     R & G space division:  proc/nbgrp/npool/nimage =       6
     Reading input from mn-85.in

     Current dimensions of program PWSCF are:
     Max number of different atomic species (ntypx) = 10
     Max number of k-points (npk) =  40000
     Max angular momentum in pseudopotentials (lmaxx) =  3
               file Mn.pbe-spn-rrkjus_psl.0.3.1.UPF: wavefunction(s)  3D renormalized
               file Mn.pbe-spn-rrkjus_psl.0.3.1.UPF: wavefunction(s)  3D renormalized

     Subspace diagonalization in iterative solution of the eigenvalue problem:
     a serial algorithm will be used

     Message from routine setup:
     DEPRECATED: symmetry with ibrav=0, use correct ibrav instead

     Parallelization info
     --------------------
     sticks:   dense  smooth     PW     G-vecs:    dense   smooth      PW
     Min        1280    1280    338                84250    84250   11498
     Max        1282    1282    339                84251    84251   11502
     Sum        7685    7685   2029               505503   505503   68999



     bravais-lattice index     =            0
     lattice parameter (alat)  =      16.8375  a.u.
     unit-cell volume          =    4773.4208 (a.u.)^3
     number of atoms/cell      =            2
     number of atomic types    =            2
     number of electrons       =        30.00
     number of Kohn-Sham states=           19
     kinetic-energy cutoff     =      85.0000  Ry
     charge density cutoff     =     340.0000  Ry
     convergence threshold     =      1.0E-06
     mixing beta               =       0.7000
     number of iterations used =            8  plain     mixing
     Exchange-correlation      = PBE ( 1  4  3  4 0 0)

     celldm(1)=  16.837460  celldm(2)=   0.000000  celldm(3)=   0.000000
     celldm(4)=   0.000000  celldm(5)=   0.000000  celldm(6)=   0.000000

     crystal axes: (cart. coord. in units of alat)
               a(1) = (   1.000000   0.000000   0.000000 )  
               a(2) = (   0.000000   1.000000   0.000000 )  
               a(3) = (   0.000000   0.000000   1.000000 )  

     reciprocal axes: (cart. coord. in units 2 pi/alat)
               b(1) = (  1.000000  0.000000  0.000000 )  
               b(2) = (  0.000000  1.000000  0.000000 )  
               b(3) = (  0.000000  0.000000  1.000000 )  


     PseudoPot. # 1 for Mn read from file:
     /home/cristian/Escritorio/Proyecto_Grafeno/pseudopotenciales/Mn.pbe-spn-rrkjus_psl.0.3.1.UPF
     MD5 check sum: e1cac159bdd2ba70c18e85765a5d4279
     Pseudo is Ultrasoft + core correction, Zval = 15.0
     Generated using "atomic" code by A. Dal Corso v.6.2.2
     Using radial grid of 1187 points,  6 beta functions with: 
                l(1) =   0
                l(2) =   0
                l(3) =   1
                l(4) =   1
                l(5) =   2
                l(6) =   2
     Q(r) pseudized with 0 coefficients 


     PseudoPot. # 2 for Mn read from file:
     /home/cristian/Escritorio/Proyecto_Grafeno/pseudopotenciales/Mn.pbe-spn-rrkjus_psl.0.3.1.UPF
     MD5 check sum: e1cac159bdd2ba70c18e85765a5d4279
     Pseudo is Ultrasoft + core correction, Zval = 15.0
     Generated using "atomic" code by A. Dal Corso v.6.2.2
     Using radial grid of 1187 points,  6 beta functions with: 
                l(1) =   0
                l(2) =   0
                l(3) =   1
                l(4) =   1
                l(5) =   2
                l(6) =   2
     Q(r) pseudized with 0 coefficients 


     atomic species   valence    mass     pseudopotential
        Mn1           15.00    54.93804     Mn( 1.00)
        Mn2           15.00    54.93804     Mn( 1.00)

     Starting magnetic structure 
     atomic species   magnetization
        Mn1          0.100
        Mn2         -0.100

     48 Sym. Ops., with inversion, found



   Cartesian axes

     site n.     atom                  positions (alat units)
         1           Mn1 tau(   1) = (   0.0000000   0.0000000   0.0000000  )
         2           Mn2 tau(   2) = (   0.5000000   0.5000000   0.5000000  )

     number of k points=    20  Methfessel-Paxton smearing, width (Ry)=  0.0300
                       cart. coord. in units 2pi/alat
        k(    1) = (   0.0625000   0.0625000   0.0625000), wk =   0.0156250
        k(    2) = (   0.0625000   0.0625000   0.1875000), wk =   0.0468750
        k(    3) = (   0.0625000   0.0625000   0.3125000), wk =   0.0468750
        k(    4) = (   0.0625000   0.0625000   0.4375000), wk =   0.0468750
        k(    5) = (   0.0625000   0.1875000   0.1875000), wk =   0.0468750
        k(    6) = (   0.0625000   0.1875000   0.3125000), wk =   0.0937500
        k(    7) = (   0.0625000   0.1875000   0.4375000), wk =   0.0937500
        k(    8) = (   0.0625000   0.3125000   0.3125000), wk =   0.0468750
        k(    9) = (   0.0625000   0.3125000   0.4375000), wk =   0.0937500
        k(   10) = (   0.0625000   0.4375000   0.4375000), wk =   0.0468750
        k(   11) = (   0.1875000   0.1875000   0.1875000), wk =   0.0156250
        k(   12) = (   0.1875000   0.1875000   0.3125000), wk =   0.0468750
        k(   13) = (   0.1875000   0.1875000   0.4375000), wk =   0.0468750
        k(   14) = (   0.1875000   0.3125000   0.3125000), wk =   0.0468750
        k(   15) = (   0.1875000   0.3125000   0.4375000), wk =   0.0937500
        k(   16) = (   0.1875000   0.4375000   0.4375000), wk =   0.0468750
        k(   17) = (   0.3125000   0.3125000   0.3125000), wk =   0.0156250
        k(   18) = (   0.3125000   0.3125000   0.4375000), wk =   0.0468750
        k(   19) = (   0.3125000   0.4375000   0.4375000), wk =   0.0468750
        k(   20) = (   0.4375000   0.4375000   0.4375000), wk =   0.0156250

     Dense  grid:   505503 G-vectors     FFT dimensions: ( 100, 100, 100)

     Estimated max dynamical RAM per process >     462.01 MB

     Estimated total dynamical RAM >       2.71 GB
     Generating pointlists ...
     new r_m :   0.3572 (alat units)  6.0149 (a.u.) for type    1
     new r_m :   0.3572 (alat units)  6.0149 (a.u.) for type    2

     Check: negative core charge=   -0.000007

     Initial potential from superposition of free atoms

     starting charge   29.99900, renormalised to   30.00000

     negative rho (up, down):  3.045E-07 7.632E-03
     Starting wfcs are   20 randomized atomic wfcs

     total cpu time spent up to now is       20.0 secs

     Self-consistent Calculation

     iteration #  1     ecut=    85.00 Ry     beta= 0.70
     Davidson diagonalization with overlap
     ethr =  1.00E-02,  avg # of iterations =  1.0

     negative rho (up, down):  2.711E-05 1.913E-02

     total cpu time spent up to now is       60.3 secs

     total energy              =    -424.94295231 Ry
     Harris-Foulkes estimate   =    -427.04639683 Ry
     estimated scf accuracy    <       2.74567746 Ry

     total magnetization       =     0.00 Bohr mag/cell
     absolute magnetization    =     5.98 Bohr mag/cell

     iteration #  2     ecut=    85.00 Ry     beta= 0.70
     Davidson diagonalization with overlap
     ethr =  9.15E-03,  avg # of iterations = 10.8

     total cpu time spent up to now is      193.2 secs

     total energy              =    -423.40014165 Ry
     Harris-Foulkes estimate   =    -433.91593928 Ry
     estimated scf accuracy    <      47.27356158 Ry

     total magnetization       =     0.02 Bohr mag/cell
     absolute magnetization    =     0.46 Bohr mag/cell

     iteration #  3     ecut=    85.00 Ry     beta= 0.70
     Davidson diagonalization with overlap
     ethr =  9.15E-03,  avg # of iterations =  8.6

     total cpu time spent up to now is      266.0 secs

     total energy              =    -425.39456223 Ry
     Harris-Foulkes estimate   =    -425.96291078 Ry
     estimated scf accuracy    <       4.65734868 Ry

     total magnetization       =    -0.01 Bohr mag/cell
     absolute magnetization    =     5.54 Bohr mag/cell

     iteration #  4     ecut=    85.00 Ry     beta= 0.70
     Davidson diagonalization with overlap
     ethr =  9.15E-03,  avg # of iterations =  6.2

     total cpu time spent up to now is      313.6 secs

     total energy              =    -426.50509418 Ry
     Harris-Foulkes estimate   =    -426.49247463 Ry
     estimated scf accuracy    <       0.10681496 Ry

     total magnetization       =     1.19 Bohr mag/cell
     absolute magnetization    =     4.96 Bohr mag/cell

     iteration #  5     ecut=    85.00 Ry     beta= 0.70
     Davidson diagonalization with overlap
     ethr =  3.56E-04,  avg # of iterations =  8.1

     total cpu time spent up to now is      390.2 secs

     total energy              =    -426.89378047 Ry
     Harris-Foulkes estimate   =    -426.96110195 Ry
     estimated scf accuracy    <       2.55578142 Ry

     total magnetization       =    -2.24 Bohr mag/cell
     absolute magnetization    =     9.69 Bohr mag/cell

     iteration #  6     ecut=    85.00 Ry     beta= 0.70
     Davidson diagonalization with overlap
     ethr =  3.56E-04,  avg # of iterations =  1.4

     total cpu time spent up to now is      427.7 secs

     total energy              =    -426.84927094 Ry
     Harris-Foulkes estimate   =    -426.93441369 Ry
     estimated scf accuracy    <       0.65007087 Ry

     total magnetization       =     1.20 Bohr mag/cell
     absolute magnetization    =    10.12 Bohr mag/cell

     iteration #  7     ecut=    85.00 Ry     beta= 0.70
     Davidson diagonalization with overlap
     ethr =  3.56E-04,  avg # of iterations =  2.0

     total cpu time spent up to now is      470.4 secs

     total energy              =    -426.94964631 Ry
     Harris-Foulkes estimate   =    -426.95232266 Ry
     estimated scf accuracy    <       3.24420794 Ry

     total magnetization       =     1.65 Bohr mag/cell
     absolute magnetization    =     5.92 Bohr mag/cell

     iteration #  8     ecut=    85.00 Ry     beta= 0.70
     Davidson diagonalization with overlap
     ethr =  3.56E-04,  avg # of iterations =  1.0

     total cpu time spent up to now is      508.3 secs

     total energy              =    -426.98365807 Ry
     Harris-Foulkes estimate   =    -426.94988310 Ry
     estimated scf accuracy    <       3.21294657 Ry

     total magnetization       =     1.63 Bohr mag/cell
     absolute magnetization    =     5.93 Bohr mag/cell

     iteration #  9     ecut=    85.00 Ry     beta= 0.70
     Davidson diagonalization with overlap
     ethr =  3.56E-04,  avg # of iterations =  1.0

     negative rho (up, down):  0.000E+00 1.500E-04

     total cpu time spent up to now is      545.2 secs

     total energy              =    -427.29553990 Ry
     Harris-Foulkes estimate   =    -426.98417326 Ry
     estimated scf accuracy    <       3.07791616 Ry

     total magnetization       =     1.45 Bohr mag/cell
     absolute magnetization    =     5.89 Bohr mag/cell

     iteration # 10     ecut=    85.00 Ry     beta= 0.70
     Davidson diagonalization with overlap
     ethr =  3.56E-04,  avg # of iterations =  2.0

     negative rho (up, down):  0.000E+00 1.394E-02

     total cpu time spent up to now is      587.7 secs

     total energy              =    -427.41655119 Ry
     Harris-Foulkes estimate   =    -427.30859870 Ry
     estimated scf accuracy    <       3.70058556 Ry

     total magnetization       =     1.39 Bohr mag/cell
     absolute magnetization    =     6.00 Bohr mag/cell

     iteration # 11     ecut=    85.00 Ry     beta= 0.70
     Davidson diagonalization with overlap
     ethr =  3.56E-04,  avg # of iterations =  1.0

     total cpu time spent up to now is      625.2 secs

     total energy              =    -427.04637656 Ry
     Harris-Foulkes estimate   =    -427.42665093 Ry
     estimated scf accuracy    <       3.46965552 Ry

     total magnetization       =    -0.19 Bohr mag/cell
     absolute magnetization    =     5.94 Bohr mag/cell

     iteration # 12     ecut=    85.00 Ry     beta= 0.70
     Davidson diagonalization with overlap
     ethr =  3.56E-04,  avg # of iterations =  2.5

     negative rho (up, down):  0.000E+00 9.960E-04

     total cpu time spent up to now is      672.0 secs

     total energy              =    -427.18747687 Ry
     Harris-Foulkes estimate   =    -427.10785373 Ry
     estimated scf accuracy    <       0.92170631 Ry

     total magnetization       =    -0.39 Bohr mag/cell
     absolute magnetization    =     9.67 Bohr mag/cell

     iteration # 13     ecut=    85.00 Ry     beta= 0.70
     Davidson diagonalization with overlap
     ethr =  3.56E-04,  avg # of iterations =  1.0

     negative rho (up, down):  1.276E-03 2.849E-01

     total cpu time spent up to now is      710.0 secs

     total energy              =    -426.74037296 Ry
     Harris-Foulkes estimate   =    -427.20322168 Ry
     estimated scf accuracy    <       3.04426044 Ry

     total magnetization       =    -1.29 Bohr mag/cell
     absolute magnetization    =     8.04 Bohr mag/cell

     iteration # 14     ecut=    85.00 Ry     beta= 0.70
     Davidson diagonalization with overlap
     ethr =  3.56E-04,  avg # of iterations =  3.5

     negative rho (up, down):  0.000E+00 2.868E-03

     total cpu time spent up to now is      761.5 secs

     total energy              =    -427.08854600 Ry
     Harris-Foulkes estimate   =    -427.07488111 Ry
     estimated scf accuracy    <       0.11011090 Ry

     total magnetization       =     0.81 Bohr mag/cell
     absolute magnetization    =    10.16 Bohr mag/cell

     iteration # 15     ecut=    85.00 Ry     beta= 0.70
     Davidson diagonalization with overlap
     ethr =  3.56E-04,  avg # of iterations =  3.3

     negative rho (up, down):  0.000E+00 2.082E-03

     total cpu time spent up to now is      808.3 secs

     total energy              =    -427.05966587 Ry
     Harris-Foulkes estimate   =    -427.11754488 Ry
     estimated scf accuracy    <       0.13634123 Ry

     total magnetization       =    -0.09 Bohr mag/cell
     absolute magnetization    =    10.20 Bohr mag/cell

     iteration # 16     ecut=    85.00 Ry     beta= 0.70
     Davidson diagonalization with overlap
     ethr =  3.56E-04,  avg # of iterations =  2.2

     negative rho (up, down):  0.000E+00 6.900E-04

     total cpu time spent up to now is      852.7 secs

     total energy              =    -427.08484167 Ry
     Harris-Foulkes estimate   =    -427.08066300 Ry
     estimated scf accuracy    <       0.34179489 Ry

     total magnetization       =    -1.03 Bohr mag/cell
     absolute magnetization    =    10.03 Bohr mag/cell

     iteration # 17     ecut=    85.00 Ry     beta= 0.70
     Davidson diagonalization with overlap
     ethr =  3.56E-04,  avg # of iterations =  1.5

     negative rho (up, down):  0.000E+00 1.980E-03

     total cpu time spent up to now is      891.1 secs

     total energy              =    -427.05251766 Ry
     Harris-Foulkes estimate   =    -427.09807050 Ry
     estimated scf accuracy    <       0.06496436 Ry

     total magnetization       =    -0.10 Bohr mag/cell
     absolute magnetization    =    10.14 Bohr mag/cell

     iteration # 18     ecut=    85.00 Ry     beta= 0.70
     Davidson diagonalization with overlap
     ethr =  2.17E-04,  avg # of iterations =  1.8

     negative rho (up, down):  0.000E+00 1.386E-02

     total cpu time spent up to now is      929.5 secs

     total energy              =    -427.10224171 Ry
     Harris-Foulkes estimate   =    -427.05835084 Ry
     estimated scf accuracy    <       0.26616886 Ry

     total magnetization       =    -0.90 Bohr mag/cell
     absolute magnetization    =    10.06 Bohr mag/cell

     iteration # 19     ecut=    85.00 Ry     beta= 0.70
     Davidson diagonalization with overlap
     ethr =  2.17E-04,  avg # of iterations =  2.1

     negative rho (up, down):  0.000E+00 3.723E-02

     total cpu time spent up to now is      970.0 secs

     total energy              =    -427.09919887 Ry
     Harris-Foulkes estimate   =    -427.11529036 Ry
     estimated scf accuracy    <       0.03926153 Ry

     total magnetization       =     0.04 Bohr mag/cell
     absolute magnetization    =    10.13 Bohr mag/cell

     iteration # 20     ecut=    85.00 Ry     beta= 0.70
     Davidson diagonalization with overlap
     ethr =  1.31E-04,  avg # of iterations =  2.6

     negative rho (up, down):  0.000E+00 7.272E-03

     total cpu time spent up to now is     1010.8 secs

     total energy              =    -427.09512322 Ry
     Harris-Foulkes estimate   =    -427.10964041 Ry
     estimated scf accuracy    <       0.03495547 Ry

     total magnetization       =     0.06 Bohr mag/cell
     absolute magnetization    =    10.12 Bohr mag/cell

     iteration # 21     ecut=    85.00 Ry     beta= 0.70
     Davidson diagonalization with overlap
     ethr =  1.17E-04,  avg # of iterations =  2.9

     negative rho (up, down):  0.000E+00 7.608E-03

     total cpu time spent up to now is     1054.4 secs

     total energy              =    -427.11517181 Ry
     Harris-Foulkes estimate   =    -427.11114525 Ry
     estimated scf accuracy    <       0.04527377 Ry

     total magnetization       =     0.01 Bohr mag/cell
     absolute magnetization    =    10.14 Bohr mag/cell

     iteration # 22     ecut=    85.00 Ry     beta= 0.70
     Davidson diagonalization with overlap
     ethr =  1.17E-04,  avg # of iterations =  1.0

     negative rho (up, down):  0.000E+00 2.615E-02

     total cpu time spent up to now is     1092.2 secs

     total energy              =    -427.11256463 Ry
     Harris-Foulkes estimate   =    -427.11528683 Ry
     estimated scf accuracy    <       0.04962207 Ry

     total magnetization       =     0.01 Bohr mag/cell
     absolute magnetization    =    10.13 Bohr mag/cell

     iteration # 23     ecut=    85.00 Ry     beta= 0.70
     Davidson diagonalization with overlap
     ethr =  1.17E-04,  avg # of iterations =  2.2

     negative rho (up, down):  0.000E+00 2.227E-02

     total cpu time spent up to now is     1135.9 secs

     total energy              =    -427.13006303 Ry
     Harris-Foulkes estimate   =    -427.12215627 Ry
     estimated scf accuracy    <       0.21985294 Ry

     total magnetization       =    -0.78 Bohr mag/cell
     absolute magnetization    =    10.03 Bohr mag/cell

     iteration # 24     ecut=    85.00 Ry     beta= 0.70
     Davidson diagonalization with overlap
     ethr =  1.17E-04,  avg # of iterations =  1.0

     negative rho (up, down):  4.910E-08 2.906E-02

     total cpu time spent up to now is     1173.7 secs

     total energy              =    -427.12918301 Ry
     Harris-Foulkes estimate   =    -427.13220497 Ry
     estimated scf accuracy    <       0.50235662 Ry

     total magnetization       =    -1.30 Bohr mag/cell
     absolute magnetization    =    10.04 Bohr mag/cell

     iteration # 25     ecut=    85.00 Ry     beta= 0.70
     Davidson diagonalization with overlap
     ethr =  1.17E-04,  avg # of iterations =  1.0

     negative rho (up, down):  0.000E+00 3.085E-02

     total cpu time spent up to now is     1211.2 secs

     total energy              =    -427.12665497 Ry
     Harris-Foulkes estimate   =    -427.12950460 Ry
     estimated scf accuracy    <       0.43334066 Ry

     total magnetization       =    -1.18 Bohr mag/cell
     absolute magnetization    =    10.04 Bohr mag/cell

     iteration # 26     ecut=    85.00 Ry     beta= 0.70
     Davidson diagonalization with overlap
     ethr =  1.17E-04,  avg # of iterations =  1.0

     negative rho (up, down):  0.000E+00 1.898E-02

     total cpu time spent up to now is     1248.9 secs

     total energy              =    -427.13386582 Ry
     Harris-Foulkes estimate   =    -427.12699153 Ry
     estimated scf accuracy    <       0.40576569 Ry

     total magnetization       =    -1.13 Bohr mag/cell
     absolute magnetization    =    10.03 Bohr mag/cell

     iteration # 27     ecut=    85.00 Ry     beta= 0.70
     Davidson diagonalization with overlap
     ethr =  1.17E-04,  avg # of iterations =  1.3

     negative rho (up, down):  1.096E-07 2.515E-02

     total cpu time spent up to now is     1286.9 secs

     total energy              =    -427.12298376 Ry
     Harris-Foulkes estimate   =    -427.13622937 Ry
     estimated scf accuracy    <       0.63921166 Ry

     total magnetization       =    -1.48 Bohr mag/cell
     absolute magnetization    =    10.04 Bohr mag/cell

     iteration # 28     ecut=    85.00 Ry     beta= 0.70
     Davidson diagonalization with overlap
     ethr =  1.17E-04,  avg # of iterations =  1.0

     negative rho (up, down):  2.103E-07 2.174E-02

     total cpu time spent up to now is     1325.1 secs

     total energy              =    -427.09841539 Ry
     Harris-Foulkes estimate   =    -427.12583519 Ry
     estimated scf accuracy    <       0.36058435 Ry

     total magnetization       =    -1.03 Bohr mag/cell
     absolute magnetization    =    10.02 Bohr mag/cell

     iteration # 29     ecut=    85.00 Ry     beta= 0.70
     Davidson diagonalization with overlap
     ethr =  1.17E-04,  avg # of iterations =  1.5

     negative rho (up, down):  1.352E-07 3.191E-02

     total cpu time spent up to now is     1364.1 secs

     total energy              =    -427.11088680 Ry
     Harris-Foulkes estimate   =    -427.11639021 Ry
     estimated scf accuracy    <       0.13117586 Ry

     total magnetization       =    -0.46 Bohr mag/cell
     absolute magnetization    =    10.04 Bohr mag/cell

     iteration # 30     ecut=    85.00 Ry     beta= 0.70
     Davidson diagonalization with overlap
     ethr =  1.17E-04,  avg # of iterations =  1.0

     negative rho (up, down):  6.408E-08 2.994E-02

     total cpu time spent up to now is     1402.6 secs

     total energy              =    -427.09525084 Ry
     Harris-Foulkes estimate   =    -427.11104584 Ry
     estimated scf accuracy    <       0.13825867 Ry

     total magnetization       =    -0.49 Bohr mag/cell
     absolute magnetization    =    10.04 Bohr mag/cell

     iteration # 31     ecut=    85.00 Ry     beta= 0.70
     Davidson diagonalization with overlap
     ethr =  1.17E-04,  avg # of iterations =  1.1

     negative rho (up, down):  3.172E-08 3.103E-02

     total cpu time spent up to now is     1440.6 secs

     total energy              =    -427.08874418 Ry
     Harris-Foulkes estimate   =    -427.09654993 Ry
     estimated scf accuracy    <       0.05214089 Ry

     total magnetization       =    -0.19 Bohr mag/cell
     absolute magnetization    =    10.10 Bohr mag/cell

     iteration # 32     ecut=    85.00 Ry     beta= 0.70
     Davidson diagonalization with overlap
     ethr =  1.17E-04,  avg # of iterations =  1.0

     negative rho (up, down):  1.196E-07 3.140E-02

     total cpu time spent up to now is     1479.0 secs

     total energy              =    -427.10036114 Ry
     Harris-Foulkes estimate   =    -427.08898138 Ry
     estimated scf accuracy    <       0.04453571 Ry

     total magnetization       =    -0.13 Bohr mag/cell
     absolute magnetization    =    10.10 Bohr mag/cell

     iteration # 33     ecut=    85.00 Ry     beta= 0.70
     Davidson diagonalization with overlap
     ethr =  1.17E-04,  avg # of iterations =  1.0

     negative rho (up, down):  1.286E-07 1.758E-02

     total cpu time spent up to now is     1517.7 secs

     total energy              =    -427.10675441 Ry
     Harris-Foulkes estimate   =    -427.10414438 Ry
     estimated scf accuracy    <       0.09675555 Ry

     total magnetization       =     0.63 Bohr mag/cell
     absolute magnetization    =    10.12 Bohr mag/cell

     iteration # 34     ecut=    85.00 Ry     beta= 0.70
     Davidson diagonalization with overlap
     ethr =  1.17E-04,  avg # of iterations =  2.0

     negative rho (up, down):  1.042E-07 1.598E-02

     total cpu time spent up to now is     1559.8 secs

     total energy              =    -427.11396096 Ry
     Harris-Foulkes estimate   =    -427.11604727 Ry
     estimated scf accuracy    <       0.00367486 Ry

     total magnetization       =     0.09 Bohr mag/cell
     absolute magnetization    =    10.14 Bohr mag/cell

     iteration # 35     ecut=    85.00 Ry     beta= 0.70
     Davidson diagonalization with overlap
     ethr =  1.22E-05,  avg # of iterations =  3.1

     negative rho (up, down):  9.671E-08 1.605E-02

     total cpu time spent up to now is     1604.6 secs

     total energy              =    -427.12238138 Ry
     Harris-Foulkes estimate   =    -427.12303669 Ry
     estimated scf accuracy    <       0.07156185 Ry

     total magnetization       =     0.44 Bohr mag/cell
     absolute magnetization    =    10.16 Bohr mag/cell

     iteration # 36     ecut=    85.00 Ry     beta= 0.70
     Davidson diagonalization with overlap
     ethr =  1.22E-05,  avg # of iterations =  1.0

     negative rho (up, down):  9.187E-08 2.573E-02

     total cpu time spent up to now is     1642.7 secs

     total energy              =    -427.12395495 Ry
     Harris-Foulkes estimate   =    -427.12239419 Ry
     estimated scf accuracy    <       0.06398058 Ry

     total magnetization       =     0.42 Bohr mag/cell
     absolute magnetization    =    10.16 Bohr mag/cell

     iteration # 37     ecut=    85.00 Ry     beta= 0.70
     Davidson diagonalization with overlap
     ethr =  1.22E-05,  avg # of iterations =  2.5

     negative rho (up, down):  9.155E-08 1.974E-02

     total cpu time spent up to now is     1687.4 secs

     total energy              =    -427.12329189 Ry
     Harris-Foulkes estimate   =    -427.12471197 Ry
     estimated scf accuracy    <       0.09415147 Ry

     total magnetization       =     0.44 Bohr mag/cell
     absolute magnetization    =    10.16 Bohr mag/cell

     iteration # 38     ecut=    85.00 Ry     beta= 0.70
     Davidson diagonalization with overlap
     ethr =  1.22E-05,  avg # of iterations =  1.4

     negative rho (up, down):  6.964E-08 1.296E-02

     total cpu time spent up to now is     1726.0 secs

     total energy              =    -427.11941176 Ry
     Harris-Foulkes estimate   =    -427.12341632 Ry
     estimated scf accuracy    <       0.07745469 Ry

     total magnetization       =     0.40 Bohr mag/cell
     absolute magnetization    =    10.17 Bohr mag/cell

     iteration # 39     ecut=    85.00 Ry     beta= 0.70
     Davidson diagonalization with overlap
     ethr =  1.22E-05,  avg # of iterations =  2.2

     negative rho (up, down):  6.062E-08 1.163E-02

     total cpu time spent up to now is     1771.9 secs

     total energy              =    -427.11982180 Ry
     Harris-Foulkes estimate   =    -427.12176905 Ry
     estimated scf accuracy    <       0.02160988 Ry

     total magnetization       =     0.18 Bohr mag/cell
     absolute magnetization    =    10.18 Bohr mag/cell

     iteration # 40     ecut=    85.00 Ry     beta= 0.70
     Davidson diagonalization with overlap
     ethr =  1.22E-05,  avg # of iterations =  1.5

     negative rho (up, down):  7.554E-08 1.356E-02

     total cpu time spent up to now is     1811.3 secs

     total energy              =    -427.12128137 Ry
     Harris-Foulkes estimate   =    -427.12048160 Ry
     estimated scf accuracy    <       0.00398830 Ry

     total magnetization       =    -0.03 Bohr mag/cell
     absolute magnetization    =    10.18 Bohr mag/cell

     iteration # 41     ecut=    85.00 Ry     beta= 0.70
     Davidson diagonalization with overlap
     ethr =  1.22E-05,  avg # of iterations =  1.0

     negative rho (up, down):  8.399E-08 1.438E-02

     total cpu time spent up to now is     1849.0 secs

     total energy              =    -427.12227462 Ry
     Harris-Foulkes estimate   =    -427.12139217 Ry
     estimated scf accuracy    <       0.00261847 Ry

     total magnetization       =     0.03 Bohr mag/cell
     absolute magnetization    =    10.18 Bohr mag/cell

     iteration # 42     ecut=    85.00 Ry     beta= 0.70
     Davidson diagonalization with overlap
     ethr =  8.73E-06,  avg # of iterations =  2.0

     negative rho (up, down):  9.038E-08 1.464E-02

     total cpu time spent up to now is     1888.7 secs

     total energy              =    -427.12270714 Ry
     Harris-Foulkes estimate   =    -427.12231919 Ry
     estimated scf accuracy    <       0.00282497 Ry

     total magnetization       =     0.08 Bohr mag/cell
     absolute magnetization    =    10.18 Bohr mag/cell

     iteration # 43     ecut=    85.00 Ry     beta= 0.70
     Davidson diagonalization with overlap
     ethr =  8.73E-06,  avg # of iterations =  1.5

     negative rho (up, down):  8.874E-08 1.457E-02

     total cpu time spent up to now is     1927.2 secs

     total energy              =    -427.12275028 Ry
     Harris-Foulkes estimate   =    -427.12275156 Ry
     estimated scf accuracy    <       0.00169942 Ry

     total magnetization       =     0.06 Bohr mag/cell
     absolute magnetization    =    10.19 Bohr mag/cell

     iteration # 44     ecut=    85.00 Ry     beta= 0.70
     Davidson diagonalization with overlap
     ethr =  5.66E-06,  avg # of iterations =  1.0

     negative rho (up, down):  8.362E-08 1.426E-02

     total cpu time spent up to now is     1965.2 secs

     total energy              =    -427.12271832 Ry
     Harris-Foulkes estimate   =    -427.12275672 Ry
     estimated scf accuracy    <       0.00252098 Ry

     total magnetization       =     0.08 Bohr mag/cell
     absolute magnetization    =    10.19 Bohr mag/cell

     iteration # 45     ecut=    85.00 Ry     beta= 0.70
     Davidson diagonalization with overlap
     ethr =  5.66E-06,  avg # of iterations =  1.0

     negative rho (up, down):  8.176E-08 1.415E-02

     total cpu time spent up to now is     2003.3 secs

     total energy              =    -427.12265733 Ry
     Harris-Foulkes estimate   =    -427.12272425 Ry
     estimated scf accuracy    <       0.00217900 Ry

     total magnetization       =     0.08 Bohr mag/cell
     absolute magnetization    =    10.18 Bohr mag/cell

     iteration # 46     ecut=    85.00 Ry     beta= 0.70
     Davidson diagonalization with overlap
     ethr =  5.66E-06,  avg # of iterations =  1.0

     negative rho (up, down):  8.506E-08 1.432E-02

     total cpu time spent up to now is     2041.4 secs

     total energy              =    -427.12274217 Ry
     Harris-Foulkes estimate   =    -427.12272542 Ry
     estimated scf accuracy    <       0.00030994 Ry

     total magnetization       =     0.03 Bohr mag/cell
     absolute magnetization    =    10.18 Bohr mag/cell

     iteration # 47     ecut=    85.00 Ry     beta= 0.70
     Davidson diagonalization with overlap
     ethr =  1.03E-06,  avg # of iterations =  2.0

     negative rho (up, down):  8.777E-08 1.456E-02

     total cpu time spent up to now is     2081.6 secs

     total energy              =    -427.12316367 Ry
     Harris-Foulkes estimate   =    -427.12316146 Ry
     estimated scf accuracy    <       0.00010708 Ry

     total magnetization       =     0.01 Bohr mag/cell
     absolute magnetization    =    10.18 Bohr mag/cell

     iteration # 48     ecut=    85.00 Ry     beta= 0.70
     Davidson diagonalization with overlap
     ethr =  3.57E-07,  avg # of iterations =  2.7

     negative rho (up, down):  8.832E-08 1.451E-02

     total cpu time spent up to now is     2125.8 secs

     total energy              =    -427.12319679 Ry
     Harris-Foulkes estimate   =    -427.12319080 Ry
     estimated scf accuracy    <       0.00008975 Ry

     total magnetization       =    -0.02 Bohr mag/cell
     absolute magnetization    =    10.18 Bohr mag/cell

     iteration # 49     ecut=    85.00 Ry     beta= 0.70
     Davidson diagonalization with overlap
     ethr =  2.99E-07,  avg # of iterations =  1.8

     negative rho (up, down):  8.630E-08 1.432E-02

     total cpu time spent up to now is     2165.4 secs

     total energy              =    -427.12319641 Ry
     Harris-Foulkes estimate   =    -427.12319836 Ry
     estimated scf accuracy    <       0.00010966 Ry

     total magnetization       =    -0.02 Bohr mag/cell
     absolute magnetization    =    10.18 Bohr mag/cell

     iteration # 50     ecut=    85.00 Ry     beta= 0.70
     Davidson diagonalization with overlap
     ethr =  2.99E-07,  avg # of iterations =  1.0

     negative rho (up, down):  9.805E-08 1.556E-02

     total cpu time spent up to now is     2203.3 secs

     total energy              =    -427.12318308 Ry
     Harris-Foulkes estimate   =    -427.12319694 Ry
     estimated scf accuracy    <       0.00010797 Ry

     total magnetization       =    -0.01 Bohr mag/cell
     absolute magnetization    =    10.18 Bohr mag/cell

     iteration # 51     ecut=    85.00 Ry     beta= 0.70
     Davidson diagonalization with overlap
     ethr =  2.99E-07,  avg # of iterations =  2.0

     negative rho (up, down):  9.206E-08 1.446E-02

     total cpu time spent up to now is     2243.1 secs

     total energy              =    -427.12320039 Ry
     Harris-Foulkes estimate   =    -427.12320908 Ry
     estimated scf accuracy    <       0.00001143 Ry

     total magnetization       =    -0.00 Bohr mag/cell
     absolute magnetization    =    10.18 Bohr mag/cell

     iteration # 52     ecut=    85.00 Ry     beta= 0.70
     Davidson diagonalization with overlap
     ethr =  3.81E-08,  avg # of iterations =  2.2

     negative rho (up, down):  9.186E-08 1.460E-02

     total cpu time spent up to now is     2285.5 secs

     total energy              =    -427.12320846 Ry
     Harris-Foulkes estimate   =    -427.12320876 Ry
     estimated scf accuracy    <       0.00006295 Ry

     total magnetization       =    -0.01 Bohr mag/cell
     absolute magnetization    =    10.18 Bohr mag/cell

     iteration # 53     ecut=    85.00 Ry     beta= 0.70
     Davidson diagonalization with overlap
     ethr =  3.81E-08,  avg # of iterations =  1.0

     negative rho (up, down):  9.254E-08 1.477E-02

     total cpu time spent up to now is     2324.1 secs

     total energy              =    -427.12320754 Ry
     Harris-Foulkes estimate   =    -427.12320949 Ry
     estimated scf accuracy    <       0.00002824 Ry

     total magnetization       =    -0.01 Bohr mag/cell
     absolute magnetization    =    10.18 Bohr mag/cell

     iteration # 54     ecut=    85.00 Ry     beta= 0.70
     Davidson diagonalization with overlap
     ethr =  3.81E-08,  avg # of iterations =  2.5

     negative rho (up, down):  9.454E-08 1.489E-02

     total cpu time spent up to now is     2369.3 secs

     total energy              =    -427.12321317 Ry
     Harris-Foulkes estimate   =    -427.12321347 Ry
     estimated scf accuracy    <       0.00001662 Ry

     total magnetization       =    -0.01 Bohr mag/cell
     absolute magnetization    =    10.18 Bohr mag/cell

     iteration # 55     ecut=    85.00 Ry     beta= 0.70
     Davidson diagonalization with overlap
     ethr =  3.81E-08,  avg # of iterations =  1.0

     negative rho (up, down):  9.835E-08 1.513E-02

     total cpu time spent up to now is     2407.4 secs

     total energy              =    -427.12321036 Ry
     Harris-Foulkes estimate   =    -427.12321409 Ry
     estimated scf accuracy    <       0.00001675 Ry

     total magnetization       =    -0.00 Bohr mag/cell
     absolute magnetization    =    10.18 Bohr mag/cell

     iteration # 56     ecut=    85.00 Ry     beta= 0.70
     Davidson diagonalization with overlap
     ethr =  3.81E-08,  avg # of iterations =  2.0

     negative rho (up, down):  9.837E-08 1.494E-02

     total cpu time spent up to now is     2450.6 secs

     total energy              =    -427.12321248 Ry
     Harris-Foulkes estimate   =    -427.12321271 Ry
     estimated scf accuracy    <       0.00000351 Ry

     total magnetization       =     0.00 Bohr mag/cell
     absolute magnetization    =    10.18 Bohr mag/cell

     iteration # 57     ecut=    85.00 Ry     beta= 0.70
     Davidson diagonalization with overlap
     ethr =  1.17E-08,  avg # of iterations =  1.0

     negative rho (up, down):  9.867E-08 1.508E-02

     Magnetic moment per site:
     atom:    1    charge:   14.9632    magn:    5.0142    constr:    0.0000
     atom:    2    charge:   14.9639    magn:   -5.0135    constr:    0.0000

     total cpu time spent up to now is     2488.4 secs

     End of self-consistent calculation

 ------ SPIN UP ------------


          k = 0.0625 0.0625 0.0625 ( 63161 PWs)   bands (ev):

   -86.5720 -81.1834 -55.2737 -55.2737 -55.2737 -50.0028 -50.0028 -50.0028
    -7.2691  -7.2691  -7.2686  -7.2686  -7.2686  -4.5856  -3.5517  -2.8342
    -2.8329  -2.8317  -2.8317

          k = 0.0625 0.0625 0.1875 ( 63149 PWs)   bands (ev):

   -86.5720 -81.1834 -55.2737 -55.2737 -55.2737 -50.0028 -50.0028 -50.0028
    -7.2691  -7.2691  -7.2686  -7.2686  -7.2686  -4.5836  -3.5500  -2.8342
    -2.8337  -2.8319  -2.8317

          k = 0.0625 0.0625 0.3125 ( 63174 PWs)   bands (ev):

   -86.5720 -81.1834 -55.2737 -55.2737 -55.2737 -50.0028 -50.0028 -50.0028
    -7.2691  -7.2690  -7.2686  -7.2686  -7.2686  -4.5808  -3.5475  -2.8342
    -2.8330  -2.8321  -2.8320

          k = 0.0625 0.0625 0.4375 ( 63197 PWs)   bands (ev):

   -86.5720 -81.1834 -55.2737 -55.2737 -55.2737 -50.0028 -50.0028 -50.0028
    -7.2691  -7.2690  -7.2686  -7.2686  -7.2686  -4.5787  -3.5458  -2.8341
    -2.8325  -2.8323  -2.8321

          k = 0.0625 0.1875 0.1875 ( 63186 PWs)   bands (ev):

   -86.5720 -81.1834 -55.2737 -55.2737 -55.2737 -50.0028 -50.0028 -50.0028
    -7.2691  -7.2690  -7.2686  -7.2686  -7.2686  -4.5818  -3.5477  -2.8335
    -2.8333  -2.8319  -2.8318

          k = 0.0625 0.1875 0.3125 ( 63172 PWs)   bands (ev):

   -86.5720 -81.1834 -55.2737 -55.2737 -55.2737 -50.0028 -50.0028 -50.0028
    -7.2691  -7.2690  -7.2686  -7.2686  -7.2686  -4.5791  -3.5444  -2.8338
    -2.8328  -2.8322  -2.8320

          k = 0.0625 0.1875 0.4375 ( 63210 PWs)   bands (ev):

   -86.5720 -81.1834 -55.2737 -55.2737 -55.2737 -50.0028 -50.0028 -50.0028
    -7.2691  -7.2690  -7.2686  -7.2686  -7.2686  -4.5772  -3.5421  -2.8337
    -2.8324  -2.8322  -2.8319

          k = 0.0625 0.3125 0.3125 ( 63188 PWs)   bands (ev):

   -86.5720 -81.1834 -55.2737 -55.2737 -55.2737 -50.0028 -50.0028 -50.0028
    -7.2690  -7.2690  -7.2686  -7.2686  -7.2686  -4.5767  -3.5400  -2.8336
    -2.8324  -2.8320  -2.8320

          k = 0.0625 0.3125 0.4375 ( 63167 PWs)   bands (ev):

   -86.5720 -81.1834 -55.2737 -55.2737 -55.2737 -50.0028 -50.0028 -50.0028
    -7.2690  -7.2690  -7.2686  -7.2686  -7.2686  -4.5750  -3.5369  -2.8330
    -2.8324  -2.8322  -2.8320

          k = 0.0625 0.4375 0.4375 ( 63170 PWs)   bands (ev):

   -86.5720 -81.1834 -55.2737 -55.2737 -55.2737 -50.0028 -50.0028 -50.0028
    -7.2690  -7.2690  -7.2686  -7.2686  -7.2686  -4.5735  -3.5331  -2.8332
    -2.8326  -2.8322  -2.8319

          k = 0.1875 0.1875 0.1875 ( 63179 PWs)   bands (ev):

   -86.5720 -81.1834 -55.2737 -55.2737 -55.2737 -50.0028 -50.0028 -50.0028
    -7.2690  -7.2690  -7.2686  -7.2686  -7.2686  -4.5800  -3.5450  -2.8335
    -2.8331  -2.8320  -2.8320

          k = 0.1875 0.1875 0.3125 ( 63143 PWs)   bands (ev):

   -86.5720 -81.1834 -55.2737 -55.2737 -55.2737 -50.0028 -50.0028 -50.0028
    -7.2690  -7.2690  -7.2686  -7.2686  -7.2686  -4.5775  -3.5412  -2.8332
    -2.8327  -2.8322  -2.8320

          k = 0.1875 0.1875 0.4375 ( 63194 PWs)   bands (ev):

   -86.5720 -81.1834 -55.2737 -55.2737 -55.2737 -50.0028 -50.0028 -50.0028
    -7.2690  -7.2690  -7.2686  -7.2686  -7.2686  -4.5757  -3.5385  -2.8334
    -2.8324  -2.8323  -2.8320

          k = 0.1875 0.3125 0.3125 ( 63157 PWs)   bands (ev):

   -86.5720 -81.1834 -55.2737 -55.2737 -55.2737 -50.0028 -50.0028 -50.0028
    -7.2690  -7.2690  -7.2686  -7.2686  -7.2686  -4.5752  -3.5367  -2.8326
    -2.8324  -2.8323  -2.8322

          k = 0.1875 0.3125 0.4375 ( 63181 PWs)   bands (ev):

   -86.5720 -81.1834 -55.2737 -55.2737 -55.2737 -50.0028 -50.0028 -50.0028
    -7.2690  -7.2690  -7.2686  -7.2686  -7.2686  -4.5736  -3.5335  -2.8330
    -2.8326  -2.8323  -2.8322

          k = 0.1875 0.4375 0.4375 ( 63135 PWs)   bands (ev):

   -86.5720 -81.1834 -55.2737 -55.2737 -55.2737 -50.0028 -50.0028 -50.0028
    -7.2690  -7.2690  -7.2686  -7.2686  -7.2686  -4.5721  -3.5298  -2.8328
    -2.8327  -2.8324  -2.8324

          k = 0.3125 0.3125 0.3125 ( 63151 PWs)   bands (ev):

   -86.5720 -81.1834 -55.2737 -55.2737 -55.2737 -50.0028 -50.0028 -50.0028
    -7.2690  -7.2690  -7.2686  -7.2686  -7.2686  -4.5730  -3.5320  -2.8325
    -2.8325  -2.8324  -2.8323

          k = 0.3125 0.3125 0.4375 ( 63144 PWs)   bands (ev):

   -86.5720 -81.1834 -55.2737 -55.2737 -55.2737 -50.0028 -50.0028 -50.0028
    -7.2690  -7.2690  -7.2686  -7.2686  -7.2686  -4.5715  -3.5286  -2.8328
    -2.8326  -2.8324  -2.8324

          k = 0.3125 0.4375 0.4375 ( 63141 PWs)   bands (ev):

   -86.5720 -81.1834 -55.2737 -55.2737 -55.2737 -50.0028 -50.0028 -50.0028
    -7.2690  -7.2690  -7.2686  -7.2686  -7.2686  -4.5700  -3.5252  -2.8328
    -2.8327  -2.8326  -2.8319

          k = 0.4375 0.4375 0.4375 ( 63172 PWs)   bands (ev):

   -86.5720 -81.1834 -55.2737 -55.2737 -55.2737 -50.0028 -50.0028 -50.0028
    -7.2690  -7.2690  -7.2686  -7.2686  -7.2686  -4.5686  -3.5218  -2.8330
    -2.8330  -2.8329  -2.8316

 ------ SPIN DOWN ----------


          k = 0.0625 0.0625 0.0625 ( 63161 PWs)   bands (ev):

   -86.5723 -81.1827 -55.2739 -55.2739 -55.2739 -50.0022 -50.0022 -50.0022
    -7.2691  -7.2691  -7.2691  -7.2688  -7.2688  -4.5857  -3.5519  -2.8329
    -2.8320  -2.8320  -2.8320

          k = 0.0625 0.0625 0.1875 ( 63149 PWs)   bands (ev):

   -86.5723 -81.1827 -55.2739 -55.2739 -55.2739 -50.0022 -50.0022 -50.0022
    -7.2691  -7.2691  -7.2691  -7.2688  -7.2688  -4.5837  -3.5502  -2.8329
    -2.8321  -2.8321  -2.8319

          k = 0.0625 0.0625 0.3125 ( 63174 PWs)   bands (ev):

   -86.5723 -81.1827 -55.2739 -55.2739 -55.2739 -50.0022 -50.0022 -50.0022
    -7.2691  -7.2691  -7.2691  -7.2688  -7.2687  -4.5809  -3.5477  -2.8328
    -2.8324  -2.8323  -2.8317

          k = 0.0625 0.0625 0.4375 ( 63197 PWs)   bands (ev):

   -86.5723 -81.1827 -55.2739 -55.2739 -55.2739 -50.0022 -50.0022 -50.0022
    -7.2691  -7.2691  -7.2691  -7.2688  -7.2687  -4.5788  -3.5460  -2.8328
    -2.8326  -2.8319  -2.8312

          k = 0.0625 0.1875 0.1875 ( 63186 PWs)   bands (ev):

   -86.5723 -81.1827 -55.2739 -55.2739 -55.2739 -50.0022 -50.0022 -50.0022
    -7.2691  -7.2691  -7.2691  -7.2688  -7.2688  -4.5818  -3.5479  -2.8326
    -2.8323  -2.8321  -2.8321

          k = 0.0625 0.1875 0.3125 ( 63172 PWs)   bands (ev):

   -86.5723 -81.1827 -55.2739 -55.2739 -55.2739 -50.0022 -50.0022 -50.0022
    -7.2691  -7.2691  -7.2691  -7.2688  -7.2687  -4.5792  -3.5446  -2.8325
    -2.8325  -2.8323  -2.8315

          k = 0.0625 0.1875 0.4375 ( 63210 PWs)   bands (ev):

   -86.5723 -81.1827 -55.2739 -55.2739 -55.2739 -50.0022 -50.0022 -50.0022
    -7.2692  -7.2691  -7.2691  -7.2688  -7.2687  -4.5773  -3.5423  -2.8327
    -2.8325  -2.8324  -2.8321

          k = 0.0625 0.3125 0.3125 ( 63188 PWs)   bands (ev):

   -86.5723 -81.1827 -55.2739 -55.2739 -55.2739 -50.0022 -50.0022 -50.0022
    -7.2692  -7.2691  -7.2691  -7.2688  -7.2687  -4.5768  -3.5402  -2.8327
    -2.8323  -2.8323  -2.8322

          k = 0.0625 0.3125 0.4375 ( 63167 PWs)   bands (ev):

   -86.5723 -81.1827 -55.2739 -55.2739 -55.2739 -50.0022 -50.0022 -50.0022
    -7.2692  -7.2691  -7.2691  -7.2688  -7.2687  -4.5751  -3.5371  -2.8328
    -2.8325  -2.8321  -2.8306

          k = 0.0625 0.4375 0.4375 ( 63170 PWs)   bands (ev):

   -86.5723 -81.1827 -55.2739 -55.2739 -55.2739 -50.0022 -50.0022 -50.0022
    -7.2692  -7.2691  -7.2691  -7.2687  -7.2687  -4.5736  -3.5334  -2.8329
    -2.8324  -2.8324  -2.8319

          k = 0.1875 0.1875 0.1875 ( 63179 PWs)   bands (ev):

   -86.5723 -81.1827 -55.2739 -55.2739 -55.2739 -50.0022 -50.0022 -50.0022
    -7.2691  -7.2691  -7.2691  -7.2687  -7.2687  -4.5801  -3.5452  -2.8323
    -2.8322  -2.8321  -2.8321

          k = 0.1875 0.1875 0.3125 ( 63143 PWs)   bands (ev):

   -86.5723 -81.1827 -55.2739 -55.2739 -55.2739 -50.0022 -50.0022 -50.0022
    -7.2691  -7.2691  -7.2691  -7.2687  -7.2687  -4.5776  -3.5415  -2.8326
    -2.8324  -2.8322  -2.8321

          k = 0.1875 0.1875 0.4375 ( 63194 PWs)   bands (ev):

   -86.5723 -81.1827 -55.2739 -55.2739 -55.2739 -50.0022 -50.0022 -50.0022
    -7.2692  -7.2692  -7.2691  -7.2687  -7.2687  -4.5758  -3.5388  -2.8328
    -2.8325  -2.8322  -2.8321

          k = 0.1875 0.3125 0.3125 ( 63157 PWs)   bands (ev):

   -86.5723 -81.1827 -55.2739 -55.2739 -55.2739 -50.0022 -50.0022 -50.0022
    -7.2692  -7.2691  -7.2691  -7.2687  -7.2687  -4.5753  -3.5369  -2.8327
    -2.8325  -2.8317  -2.8310

          k = 0.1875 0.3125 0.4375 ( 63181 PWs)   bands (ev):

   -86.5723 -81.1827 -55.2739 -55.2739 -55.2739 -50.0022 -50.0022 -50.0022
    -7.2692  -7.2692  -7.2691  -7.2687  -7.2687  -4.5737  -3.5337  -2.8329
    -2.8326  -2.8316  -2.8306

          k = 0.1875 0.4375 0.4375 ( 63135 PWs)   bands (ev):

   -86.5723 -81.1827 -55.2739 -55.2739 -55.2739 -50.0022 -50.0022 -50.0022
    -7.2692  -7.2692  -7.2691  -7.2687  -7.2687  -4.5721  -3.5301  -2.8330
    -2.8327  -2.8326  -2.8314

          k = 0.3125 0.3125 0.3125 ( 63151 PWs)   bands (ev):

   -86.5723 -81.1827 -55.2739 -55.2739 -55.2739 -50.0022 -50.0022 -50.0022
    -7.2692  -7.2692  -7.2692  -7.2687  -7.2687  -4.5731  -3.5322  -2.8328
    -2.8328  -2.8326  -2.8310

          k = 0.3125 0.3125 0.4375 ( 63144 PWs)   bands (ev):

   -86.5723 -81.1827 -55.2739 -55.2739 -55.2739 -50.0022 -50.0022 -50.0022
    -7.2692  -7.2692  -7.2692  -7.2687  -7.2687  -4.5716  -3.5288  -2.8330
    -2.8328  -2.8310  -2.8305

          k = 0.3125 0.4375 0.4375 ( 63141 PWs)   bands (ev):

   -86.5723 -81.1827 -55.2739 -55.2739 -55.2739 -50.0022 -50.0022 -50.0022
    -7.2692  -7.2692  -7.2692  -7.2687  -7.2687  -4.5701  -3.5254  -2.8331
    -2.8330  -2.8307  -2.8302

          k = 0.4375 0.4375 0.4375 ( 63172 PWs)   bands (ev):

   -86.5723 -81.1827 -55.2739 -55.2739 -55.2739 -50.0022 -50.0022 -50.0022
    -7.2692  -7.2692  -7.2692  -7.2687  -7.2687  -4.5687  -3.5220  -2.8332
    -2.8332  -2.8332  -2.8302

     the Fermi energy is    -3.1797 ev

!    total energy              =    -427.12321249 Ry
     Harris-Foulkes estimate   =    -427.12321272 Ry
     estimated scf accuracy    <       0.00000027 Ry

     The total energy is the sum of the following terms:

     one-electron contribution =    -533.16445651 Ry
     hartree contribution      =     258.71961367 Ry
     xc contribution           =     -55.42526245 Ry
     ewald contribution        =     -97.26259587 Ry
     smearing contrib. (-TS)   =       0.00948867 Ry

     total magnetization       =     0.00 Bohr mag/cell
     absolute magnetization    =    10.18 Bohr mag/cell

     convergence has been achieved in  57 iterations

     Writing output data file mn-85.save/

     init_run     :     17.65s CPU     18.63s WALL (       1 calls)
     electrons    :   2425.07s CPU   2468.41s WALL (       1 calls)

     Called by init_run:
     wfcinit      :     15.58s CPU     15.83s WALL (       1 calls)
     potinit      :      0.61s CPU      0.65s WALL (       1 calls)
     hinit0       :      0.61s CPU      0.64s WALL (       1 calls)

     Called by electrons:
     c_bands      :   1908.84s CPU   1928.32s WALL (      57 calls)
     sum_band     :    452.92s CPU    466.92s WALL (      57 calls)
     v_of_rho     :     22.21s CPU     22.55s WALL (      58 calls)
     newd         :     30.91s CPU     40.93s WALL (      58 calls)
     mix_rho      :     10.18s CPU     10.29s WALL (      57 calls)

     Called by c_bands:
     init_us_2    :     21.99s CPU     22.05s WALL (    4600 calls)
     cegterg      :   1829.38s CPU   1848.72s WALL (    2280 calls)

     Called by sum_band:
     sum_band:bec :      0.06s CPU      0.06s WALL (    2280 calls)
     addusdens    :     91.73s CPU    101.58s WALL (      57 calls)

     Called by *egterg:
     h_psi        :   1362.01s CPU   1380.93s WALL (    7166 calls)
     s_psi        :    116.95s CPU    117.14s WALL (    7166 calls)
     g_psi        :      5.40s CPU      5.42s WALL (    4846 calls)
     cdiaghg      :      4.21s CPU      4.23s WALL (    7126 calls)

     Called by h_psi:
     h_psi:pot    :   1355.74s CPU   1374.57s WALL (    7166 calls)
     h_psi:calbec :    152.89s CPU    153.34s WALL (    7166 calls)
     vloc_psi     :   1061.11s CPU   1079.43s WALL (    7166 calls)
     add_vuspsi   :    141.63s CPU    141.75s WALL (    7166 calls)

     General routines
     calbec       :    216.76s CPU    217.30s WALL (    9446 calls)
     fft          :     12.25s CPU     12.70s WALL (    1216 calls)
     ffts         :      1.21s CPU      1.27s WALL (     114 calls)
     fftw         :   1086.24s CPU   1105.61s WALL (  244508 calls)

     Parallel routines
     fft_scatt_xy :    178.87s CPU    182.25s WALL (  245838 calls)
     fft_scatt_yz :    399.26s CPU    409.26s WALL (  245838 calls)

     PWSCF        :  40m44.60s CPU  41m29.43s WALL


   This run was terminated on:  14:59: 7  25May2022            

=------------------------------------------------------------------------------=
   JOB DONE.
=------------------------------------------------------------------------------=
