
     Program PWSCF v.6.4.1 starts on 14Mar2023 at  9: 4:47 

     This program is part of the open-source Quantum ESPRESSO suite
     for quantum simulation of materials; please cite
         "P. Giannozzi et al., J. Phys.:Condens. Matter 21 395502 (2009);
         "P. Giannozzi et al., J. Phys.:Condens. Matter 29 465901 (2017);
          URL http://www.quantum-espresso.org", 
     in publications or presentations arising from this work. More details at
     http://www.quantum-espresso.org/quote

     Parallel version (MPI), running on     6 processors

     MPI processes distributed on     1 nodes
     R & G space division:  proc/nbgrp/npool/nimage =       6
     Reading input from ni-vcrelax.in

     Current dimensions of program PWSCF are:
     Max number of different atomic species (ntypx) = 10
     Max number of k-points (npk) =  40000
     Max angular momentum in pseudopotentials (lmaxx) =  3
               file H.pbe-rrkjus.UPF: wavefunction(s)  1S renormalized

     Subspace diagonalization in iterative solution of the eigenvalue problem:
     a serial algorithm will be used


     Parallelization info
     --------------------
     sticks:   dense  smooth     PW     G-vecs:    dense   smooth      PW
     Min        3051    1746    432               270999   117096   14629
     Max        3053    1747    437               271001   117099   14630
     Sum       18313   10477   2611              1626001   702581   87777



     bravais-lattice index     =            4
     lattice parameter (alat)  =      23.2937  a.u.
     unit-cell volume          =    8879.8548 (a.u.)^3
     number of atoms/cell      =           52
     number of atomic types    =            3
     number of electrons       =       216.00
     number of Kohn-Sham states=          130
     kinetic-energy cutoff     =      70.0000  Ry
     charge density cutoff     =     490.0000  Ry
     convergence threshold     =      1.0E-09
     mixing beta               =       0.7000
     number of iterations used =            8  plain     mixing
     Exchange-correlation      = PBE ( 1  4  3  4 0 0)
     nstep                     =           50


     celldm(1)=  23.293684  celldm(2)=   0.000000  celldm(3)=   0.811261
     celldm(4)=   0.000000  celldm(5)=   0.000000  celldm(6)=   0.000000

     crystal axes: (cart. coord. in units of alat)
               a(1) = (   1.000000   0.000000   0.000000 )  
               a(2) = (  -0.500000   0.866025   0.000000 )  
               a(3) = (   0.000000   0.000000   0.811261 )  

     reciprocal axes: (cart. coord. in units 2 pi/alat)
               b(1) = (  1.000000  0.577350 -0.000000 )  
               b(2) = (  0.000000  1.154701  0.000000 )  
               b(3) = (  0.000000 -0.000000  1.232649 )  


     PseudoPot. # 1 for H  read from file:
     /home/cristian/Escritorio/Proyecto_Grafeno/pseudopotenciales/H.pbe-rrkjus.UPF
     MD5 check sum: 7cc9d459525c9a0585f487a71c3c9563
     Pseudo is Ultrasoft, Zval =  1.0
     Generated by new atomic code, or converted to UPF format
     Using radial grid of 1061 points,  2 beta functions with: 
                l(1) =   0
                l(2) =   0
     Q(r) pseudized with 0 coefficients 


     PseudoPot. # 2 for C  read from file:
     /home/cristian/Escritorio/Proyecto_Grafeno/pseudopotenciales/C.pbe-n-rrkjus_psl.1.0.0.UPF
     MD5 check sum: 1fdd950c42eb37d8afe3dd2f8d12311e
     Pseudo is Ultrasoft + core correction, Zval =  4.0
     Generated using "atomic" code by A. Dal Corso v.6.3MaX
     Using radial grid of 1073 points,  4 beta functions with: 
                l(1) =   0
                l(2) =   0
                l(3) =   1
                l(4) =   1
     Q(r) pseudized with 0 coefficients 


     PseudoPot. # 3 for Ni read from file:
     /home/cristian/Escritorio/Proyecto_Grafeno/pseudopotenciales/Ni.pbe-spn-rrkjus_psl.1.0.0.UPF
     MD5 check sum: 8b3fc9aac6dafe35f580d41bb18c3945
     Pseudo is Ultrasoft + core correction, Zval = 18.0
     Generated using "atomic" code by A. Dal Corso v.6.3
     Using radial grid of 1195 points,  6 beta functions with: 
                l(1) =   0
                l(2) =   0
                l(3) =   1
                l(4) =   1
                l(5) =   2
                l(6) =   2
     Q(r) pseudized with 0 coefficients 


     atomic species   valence    mass     pseudopotential
        H              1.00     1.00794     H ( 1.00)
        C              4.00    12.01070     C ( 1.00)
        Ni            18.00    58.69340     Ni( 1.00)

     Starting magnetic structure 
     atomic species   magnetization
        H            0.500
        C            0.300
        Ni           1.000

      2 Sym. Ops. (no inversion) found


                                    s                        frac. trans.

      isym =  1     identity                                     

 cryst.   s( 1) = (     1          0          0      )
                  (     0          1          0      )
                  (     0          0          1      )

 cart.    s( 1) = (  1.0000000  0.0000000  0.0000000 )
                  (  0.0000000  1.0000000  0.0000000 )
                  (  0.0000000  0.0000000  1.0000000 )


      isym =  2     inv. 180 deg rotation - cryst. axis [1,1,0]  

 cryst.   s( 2) = (     0         -1          0      )
                  (    -1          0          0      )
                  (     0          0          1      )

 cart.    s( 2) = (  0.5000000 -0.8660254  0.0000000 )
                  ( -0.8660254 -0.5000000  0.0000000 )
                  (  0.0000000  0.0000000  1.0000000 )


     point group C_s (m)    
     there are  2 classes
     the character table:

       E     s    
A'     1.00  1.00
A''    1.00 -1.00

     the symmetry operations in each class and the name of the first element:

     E        1
          identity                                               
     s        2
          inv. 180 deg rotation - cryst. axis [1,1,0]            

   Cartesian axes

     site n.     atom                  positions (alat units)
         1           H   tau(   1) = (   0.3000000   0.4041452   0.2271531  )
         2           H   tau(   2) = (   0.3000000   0.4041452   0.2881658  )
         3           C   tau(   3) = (   0.0000000   0.0000000   0.0000000  )
         4           C   tau(   4) = (   0.0000000   0.1154701   0.0000000  )
         5           C   tau(   5) = (  -0.1000000   0.1732051   0.0000000  )
         6           C   tau(   6) = (  -0.1000000   0.2886751   0.0000000  )
         7           C   tau(   7) = (  -0.2000000   0.3464102   0.0000000  )
         8           C   tau(   8) = (  -0.2000000   0.4618802   0.0000000  )
         9           C   tau(   9) = (  -0.3000000   0.5196152   0.0000000  )
        10           C   tau(  10) = (  -0.3000000   0.6350853   0.0000000  )
        11           C   tau(  11) = (  -0.4000000   0.6928203   0.0000000  )
        12           C   tau(  12) = (  -0.4000000   0.8082904   0.0000000  )
        13           C   tau(  13) = (   0.2000000   0.0000000   0.0000000  )
        14           C   tau(  14) = (   0.2000000   0.1154701   0.0000000  )
        15           C   tau(  15) = (   0.1000000   0.1732051   0.0000000  )
        16           C   tau(  16) = (   0.1000000   0.2886751   0.0000000  )
        17           C   tau(  17) = (   0.0000000   0.3464102   0.0000000  )
        18           C   tau(  18) = (   0.0000000   0.4618802   0.0000000  )
        19           C   tau(  19) = (  -0.1000000   0.5196152   0.0000000  )
        20           C   tau(  20) = (  -0.1000000   0.6350853   0.0000000  )
        21           C   tau(  21) = (  -0.2000000   0.6928203   0.0000000  )
        22           C   tau(  22) = (  -0.2000000   0.8082904   0.0000000  )
        23           C   tau(  23) = (   0.4000000   0.0000000   0.0000000  )
        24           C   tau(  24) = (   0.4000000   0.1154701   0.0000000  )
        25           C   tau(  25) = (   0.3000000   0.1732051   0.0000000  )
        26           C   tau(  26) = (   0.3000000   0.2886751   0.0000000  )
        27           C   tau(  27) = (   0.2000000   0.3464102   0.0000000  )
        28           Ni  tau(  28) = (   0.2000000   0.4618802   0.0000000  )
        29           C   tau(  29) = (   0.1000000   0.5196152   0.0000000  )
        30           C   tau(  30) = (   0.1000000   0.6350853   0.0000000  )
        31           C   tau(  31) = (   0.0000000   0.6928203   0.0000000  )
        32           C   tau(  32) = (   0.0000000   0.8082904   0.0000000  )
        33           C   tau(  33) = (   0.6000000   0.0000000   0.0000000  )
        34           C   tau(  34) = (   0.6000000   0.1154701   0.0000000  )
        35           C   tau(  35) = (   0.5000000   0.1732051   0.0000000  )
        36           C   tau(  36) = (   0.5000000   0.2886751   0.0000000  )
        37           C   tau(  37) = (   0.4000000   0.3464102   0.0000000  )
        38           C   tau(  38) = (   0.4000000   0.4618802   0.0000000  )
        39           C   tau(  39) = (   0.3000000   0.5196152   0.0000000  )
        40           C   tau(  40) = (   0.3000000   0.6350853   0.0000000  )
        41           C   tau(  41) = (   0.2000000   0.6928203   0.0000000  )
        42           C   tau(  42) = (   0.2000000   0.8082904   0.0000000  )
        43           C   tau(  43) = (   0.8000000   0.0000000   0.0000000  )
        44           C   tau(  44) = (   0.8000000   0.1154701   0.0000000  )
        45           C   tau(  45) = (   0.7000000   0.1732051   0.0000000  )
        46           C   tau(  46) = (   0.7000000   0.2886751   0.0000000  )
        47           C   tau(  47) = (   0.6000000   0.3464102   0.0000000  )
        48           C   tau(  48) = (   0.6000000   0.4618802   0.0000000  )
        49           C   tau(  49) = (   0.5000000   0.5196152   0.0000000  )
        50           C   tau(  50) = (   0.5000000   0.6350853   0.0000000  )
        51           C   tau(  51) = (   0.4000000   0.6928203   0.0000000  )
        52           C   tau(  52) = (   0.4000000   0.8082904   0.0000000  )

   Crystallographic axes

     site n.     atom                  positions (cryst. coord.)
         1           H   tau(   1) = (  0.5333333  0.4666667  0.2800000  )
         2           H   tau(   2) = (  0.5333333  0.4666667  0.3552072  )
         3           C   tau(   3) = (  0.0000000  0.0000000  0.0000000  )
         4           C   tau(   4) = (  0.0666667  0.1333333  0.0000000  )
         5           C   tau(   5) = (  0.0000000  0.2000000  0.0000000  )
         6           C   tau(   6) = (  0.0666667  0.3333333  0.0000000  )
         7           C   tau(   7) = (  0.0000000  0.4000000  0.0000000  )
         8           C   tau(   8) = (  0.0666667  0.5333333  0.0000000  )
         9           C   tau(   9) = (  0.0000000  0.6000000  0.0000000  )
        10           C   tau(  10) = (  0.0666667  0.7333333  0.0000000  )
        11           C   tau(  11) = (  0.0000000  0.8000000  0.0000000  )
        12           C   tau(  12) = (  0.0666667  0.9333333  0.0000000  )
        13           C   tau(  13) = (  0.2000000  0.0000000  0.0000000  )
        14           C   tau(  14) = (  0.2666667  0.1333333  0.0000000  )
        15           C   tau(  15) = (  0.2000000  0.2000000  0.0000000  )
        16           C   tau(  16) = (  0.2666667  0.3333333  0.0000000  )
        17           C   tau(  17) = (  0.2000000  0.4000000  0.0000000  )
        18           C   tau(  18) = (  0.2666667  0.5333333  0.0000000  )
        19           C   tau(  19) = (  0.2000000  0.6000000  0.0000000  )
        20           C   tau(  20) = (  0.2666667  0.7333333  0.0000000  )
        21           C   tau(  21) = (  0.2000000  0.8000000  0.0000000  )
        22           C   tau(  22) = (  0.2666667  0.9333333  0.0000000  )
        23           C   tau(  23) = (  0.4000000  0.0000000  0.0000000  )
        24           C   tau(  24) = (  0.4666667  0.1333333  0.0000000  )
        25           C   tau(  25) = (  0.4000000  0.2000000  0.0000000  )
        26           C   tau(  26) = (  0.4666667  0.3333333  0.0000000  )
        27           C   tau(  27) = (  0.4000000  0.4000000  0.0000000  )
        28           Ni  tau(  28) = (  0.4666667  0.5333333  0.0000000  )
        29           C   tau(  29) = (  0.4000000  0.6000000  0.0000000  )
        30           C   tau(  30) = (  0.4666667  0.7333333  0.0000000  )
        31           C   tau(  31) = (  0.4000000  0.8000000  0.0000000  )
        32           C   tau(  32) = (  0.4666667  0.9333333  0.0000000  )
        33           C   tau(  33) = (  0.6000000  0.0000000  0.0000000  )
        34           C   tau(  34) = (  0.6666667  0.1333333  0.0000000  )
        35           C   tau(  35) = (  0.6000000  0.2000000  0.0000000  )
        36           C   tau(  36) = (  0.6666667  0.3333333  0.0000000  )
        37           C   tau(  37) = (  0.6000000  0.4000000  0.0000000  )
        38           C   tau(  38) = (  0.6666667  0.5333333  0.0000000  )
        39           C   tau(  39) = (  0.6000000  0.6000000  0.0000000  )
        40           C   tau(  40) = (  0.6666667  0.7333333  0.0000000  )
        41           C   tau(  41) = (  0.6000000  0.8000000  0.0000000  )
        42           C   tau(  42) = (  0.6666667  0.9333333  0.0000000  )
        43           C   tau(  43) = (  0.8000000  0.0000000  0.0000000  )
        44           C   tau(  44) = (  0.8666667  0.1333333  0.0000000  )
        45           C   tau(  45) = (  0.8000000  0.2000000  0.0000000  )
        46           C   tau(  46) = (  0.8666667  0.3333333  0.0000000  )
        47           C   tau(  47) = (  0.8000000  0.4000000  0.0000000  )
        48           C   tau(  48) = (  0.8666667  0.5333333  0.0000000  )
        49           C   tau(  49) = (  0.8000000  0.6000000  0.0000000  )
        50           C   tau(  50) = (  0.8666667  0.7333333  0.0000000  )
        51           C   tau(  51) = (  0.8000000  0.8000000  0.0000000  )
        52           C   tau(  52) = (  0.8666667  0.9333333  0.0000000  )

     number of k points=     1  Marzari-Vanderbilt smearing, width (Ry)=  0.0100
                       cart. coord. in units 2pi/alat
        k(    1) = (   0.0000000   0.0000000   0.0000000), wk =   1.0000000

                       cryst. coord.
        k(    1) = (   0.0000000   0.0000000   0.0000000), wk =   1.0000000

     Dense  grid:  1626001 G-vectors     FFT dimensions: ( 180, 180, 135)

     Smooth grid:   702581 G-vectors     FFT dimensions: ( 125, 125, 108)

     Dynamical RAM for                 wfc:      29.03 MB

     Dynamical RAM for     wfc (w. buffer):      87.10 MB

     Dynamical RAM for           str. fact:      12.41 MB

     Dynamical RAM for           local pot:       0.00 MB

     Dynamical RAM for          nlocal pot:      92.46 MB

     Dynamical RAM for                qrad:      19.73 MB

     Dynamical RAM for          rho,v,vnew:      58.92 MB

     Dynamical RAM for               rhoin:      19.64 MB

     Dynamical RAM for            rho*nmix:     132.32 MB

     Dynamical RAM for           G-vectors:      16.40 MB

     Dynamical RAM for          h,s,v(r/c):      12.38 MB

     Dynamical RAM for          <psi|beta>:       0.82 MB

     Dynamical RAM for                 psi:     116.14 MB

     Dynamical RAM for                hpsi:     116.14 MB

     Dynamical RAM for                spsi:     116.14 MB

     Dynamical RAM for      wfcinit/wfcrot:      93.90 MB

     Dynamical RAM for           addusdens:     975.89 MB

     Dynamical RAM for          addusforce:    1410.48 MB

     Estimated static dynamical RAM per process >     489.64 MB

     Estimated max dynamical RAM per process >       1.86 GB

     Estimated total dynamical RAM >      11.13 GB
     Generating pointlists ...
     new r_m :   0.0252 (alat units)  0.5862 (a.u.) for type    1
     new r_m :   0.0476 (alat units)  1.1095 (a.u.) for type    2
     new r_m :   0.0476 (alat units)  1.1095 (a.u.) for type    3

     Check: negative core charge=   -0.000002

     Initial potential from superposition of free atoms

     starting charge  215.80530, renormalised to  216.00000

     negative rho (up, down):  1.419E-04 1.826E-02
     Starting wfcs are  208 randomized atomic wfcs

     total cpu time spent up to now is       62.8 secs

     Self-consistent Calculation

     iteration #  1     ecut=    70.00 Ry     beta= 0.70
     Davidson diagonalization with overlap
     ethr =  1.00E-02,  avg # of iterations =  5.5

     negative rho (up, down):  2.646E-04 1.549E-02

     total cpu time spent up to now is      172.0 secs

     total energy              =    -943.08534487 Ry
     Harris-Foulkes estimate   =    -944.01505271 Ry
     estimated scf accuracy    <      17.97492774 Ry

     total magnetization       =     6.53 Bohr mag/cell
     absolute magnetization    =     7.28 Bohr mag/cell

     iteration #  2     ecut=    70.00 Ry     beta= 0.70
     Davidson diagonalization with overlap
     ethr =  8.32E-03,  avg # of iterations =  3.5

     negative rho (up, down):  7.885E-04 9.175E-02

     total cpu time spent up to now is      281.1 secs

     total energy              =    -943.06601197 Ry
     Harris-Foulkes estimate   =    -956.94656543 Ry
     estimated scf accuracy    <      39.50797401 Ry

     total magnetization       =     4.15 Bohr mag/cell
     absolute magnetization    =     4.90 Bohr mag/cell

     iteration #  3     ecut=    70.00 Ry     beta= 0.70
     Davidson diagonalization with overlap
     ethr =  8.32E-03,  avg # of iterations =  4.5

     negative rho (up, down):  1.414E-03 3.508E-01

     total cpu time spent up to now is      365.4 secs

     total energy              =    -951.60878976 Ry
     Harris-Foulkes estimate   =    -950.88835570 Ry
     estimated scf accuracy    <      32.75022580 Ry

     total magnetization       =     3.75 Bohr mag/cell
     absolute magnetization    =     9.81 Bohr mag/cell

     iteration #  4     ecut=    70.00 Ry     beta= 0.70
     Davidson diagonalization with overlap
     ethr =  8.32E-03,  avg # of iterations =  3.5

     negative rho (up, down):  9.280E-02 5.459E-01

     total cpu time spent up to now is      444.6 secs

     total energy              =    -937.19297586 Ry
     Harris-Foulkes estimate   =    -964.03675159 Ry
     estimated scf accuracy    <     770.26769443 Ry

     total magnetization       =     0.00 Bohr mag/cell
     absolute magnetization    =    41.16 Bohr mag/cell

     iteration #  5     ecut=    70.00 Ry     beta= 0.70
     Davidson diagonalization with overlap
     ethr =  8.32E-03,  avg # of iterations =  3.0

     negative rho (up, down):  4.027E-02 4.573E-01

     total cpu time spent up to now is      541.3 secs

     total energy              =    -948.01396532 Ry
     Harris-Foulkes estimate   =    -950.91125880 Ry
     estimated scf accuracy    <      18.38261457 Ry

     total magnetization       =     0.88 Bohr mag/cell
     absolute magnetization    =     2.95 Bohr mag/cell

     iteration #  6     ecut=    70.00 Ry     beta= 0.70
     Davidson diagonalization with overlap
     ethr =  8.32E-03,  avg # of iterations =  2.5

     negative rho (up, down):  1.211E-01 4.638E-01

     total cpu time spent up to now is      625.3 secs

     total energy              =    -948.33217694 Ry
     Harris-Foulkes estimate   =    -952.62642361 Ry
     estimated scf accuracy    <     189.14915709 Ry

     total magnetization       =     0.10 Bohr mag/cell
     absolute magnetization    =    20.29 Bohr mag/cell

     iteration #  7     ecut=    70.00 Ry     beta= 0.70
     Davidson diagonalization with overlap
     ethr =  8.32E-03,  avg # of iterations =  2.0

     negative rho (up, down):  1.422E-01 3.714E-01

     total cpu time spent up to now is      704.6 secs

     total energy              =    -949.34674262 Ry
     Harris-Foulkes estimate   =    -949.98417971 Ry
     estimated scf accuracy    <      18.74140871 Ry

     total magnetization       =     0.01 Bohr mag/cell
     absolute magnetization    =     5.18 Bohr mag/cell

     iteration #  8     ecut=    70.00 Ry     beta= 0.70
     Davidson diagonalization with overlap
     ethr =  8.32E-03,  avg # of iterations =  2.0

     negative rho (up, down):  2.847E-02 3.955E-01

     total cpu time spent up to now is      781.4 secs

     total energy              =    -949.53179995 Ry
     Harris-Foulkes estimate   =    -949.93535859 Ry
     estimated scf accuracy    <       8.53172469 Ry

     total magnetization       =     0.12 Bohr mag/cell
     absolute magnetization    =     3.33 Bohr mag/cell

     iteration #  9     ecut=    70.00 Ry     beta= 0.70
     Davidson diagonalization with overlap
     ethr =  3.95E-03,  avg # of iterations =  1.5

     negative rho (up, down):  1.569E-02 2.438E-01

     total cpu time spent up to now is      856.7 secs

     total energy              =    -949.75598795 Ry
     Harris-Foulkes estimate   =    -949.87295251 Ry
     estimated scf accuracy    <       1.38948925 Ry

     total magnetization       =     0.00 Bohr mag/cell
     absolute magnetization    =     1.07 Bohr mag/cell

     iteration # 10     ecut=    70.00 Ry     beta= 0.70
     Davidson diagonalization with overlap
     ethr =  6.43E-04,  avg # of iterations =  4.0

     negative rho (up, down):  3.512E-02 5.256E-02

     total cpu time spent up to now is      937.3 secs

     total energy              =    -949.76191444 Ry
     Harris-Foulkes estimate   =    -949.90546054 Ry
     estimated scf accuracy    <       2.69605322 Ry

     total magnetization       =     0.05 Bohr mag/cell
     absolute magnetization    =     0.99 Bohr mag/cell

     iteration # 11     ecut=    70.00 Ry     beta= 0.70
     Davidson diagonalization with overlap
     ethr =  6.43E-04,  avg # of iterations =  2.0

     negative rho (up, down):  5.746E-03 1.858E-01

     total cpu time spent up to now is     1013.9 secs

     total energy              =    -949.80515943 Ry
     Harris-Foulkes estimate   =    -949.85333683 Ry
     estimated scf accuracy    <       0.19623874 Ry

     total magnetization       =     0.01 Bohr mag/cell
     absolute magnetization    =     0.50 Bohr mag/cell

     iteration # 12     ecut=    70.00 Ry     beta= 0.70
     Davidson diagonalization with overlap
     ethr =  9.09E-05,  avg # of iterations =  8.5

     negative rho (up, down):  4.499E-03 1.351E-01

     total cpu time spent up to now is     1099.4 secs

     total energy              =    -949.82941976 Ry
     Harris-Foulkes estimate   =    -949.84233336 Ry
     estimated scf accuracy    <       0.07061029 Ry

     total magnetization       =    -0.03 Bohr mag/cell
     absolute magnetization    =     0.36 Bohr mag/cell

     iteration # 13     ecut=    70.00 Ry     beta= 0.70
     Davidson diagonalization with overlap
     ethr =  3.27E-05,  avg # of iterations =  2.5

     negative rho (up, down):  1.712E-03 9.971E-02

     total cpu time spent up to now is     1178.6 secs

     total energy              =    -949.83213280 Ry
     Harris-Foulkes estimate   =    -949.84050827 Ry
     estimated scf accuracy    <       0.04148545 Ry

     total magnetization       =    -0.01 Bohr mag/cell
     absolute magnetization    =     0.32 Bohr mag/cell

     iteration # 14     ecut=    70.00 Ry     beta= 0.70
     Davidson diagonalization with overlap
     ethr =  1.92E-05,  avg # of iterations =  3.0

     negative rho (up, down):  1.468E-03 2.236E-01

     total cpu time spent up to now is     1261.1 secs

     total energy              =    -949.84128813 Ry
     Harris-Foulkes estimate   =    -949.84062947 Ry
     estimated scf accuracy    <       0.10533405 Ry

     total magnetization       =    -0.02 Bohr mag/cell
     absolute magnetization    =     0.53 Bohr mag/cell

     iteration # 15     ecut=    70.00 Ry     beta= 0.70
     Davidson diagonalization with overlap
     ethr =  1.92E-05,  avg # of iterations =  1.0

     negative rho (up, down):  1.377E-03 2.711E-01

     total cpu time spent up to now is     1335.0 secs

     total energy              =    -949.83923694 Ry
     Harris-Foulkes estimate   =    -949.84155823 Ry
     estimated scf accuracy    <       0.16640598 Ry

     total magnetization       =    -0.02 Bohr mag/cell
     absolute magnetization    =     0.65 Bohr mag/cell

     iteration # 16     ecut=    70.00 Ry     beta= 0.70
     Davidson diagonalization with overlap
     ethr =  1.92E-05,  avg # of iterations =  2.0

     negative rho (up, down):  1.220E-03 2.810E-01

     total cpu time spent up to now is     1409.7 secs

     total energy              =    -949.84013436 Ry
     Harris-Foulkes estimate   =    -949.84046549 Ry
     estimated scf accuracy    <       0.15444329 Ry

     total magnetization       =    -0.02 Bohr mag/cell
     absolute magnetization    =     0.62 Bohr mag/cell

     iteration # 17     ecut=    70.00 Ry     beta= 0.70
     Davidson diagonalization with overlap
     ethr =  1.92E-05,  avg # of iterations =  1.0

     negative rho (up, down):  1.293E-03 2.834E-01

     total cpu time spent up to now is     1483.3 secs

     total energy              =    -949.83532899 Ry
     Harris-Foulkes estimate   =    -949.84017721 Ry
     estimated scf accuracy    <       0.13835248 Ry

     total magnetization       =    -0.02 Bohr mag/cell
     absolute magnetization    =     0.59 Bohr mag/cell

     iteration # 18     ecut=    70.00 Ry     beta= 0.70
     Davidson diagonalization with overlap
     ethr =  1.92E-05,  avg # of iterations =  2.0

     negative rho (up, down):  2.292E-03 1.915E-01

     total cpu time spent up to now is     1558.9 secs

     total energy              =    -949.83765179 Ry
     Harris-Foulkes estimate   =    -949.83765923 Ry
     estimated scf accuracy    <       0.01368086 Ry

     total magnetization       =    -0.02 Bohr mag/cell
     absolute magnetization    =     0.15 Bohr mag/cell

     iteration # 19     ecut=    70.00 Ry     beta= 0.70
     Davidson diagonalization with overlap
     ethr =  6.33E-06,  avg # of iterations =  7.0

     negative rho (up, down):  1.249E-03 1.254E-01

     total cpu time spent up to now is     1636.7 secs

     total energy              =    -949.83816623 Ry
     Harris-Foulkes estimate   =    -949.83830618 Ry
     estimated scf accuracy    <       0.00446730 Ry

     total magnetization       =    -0.02 Bohr mag/cell
     absolute magnetization    =     0.11 Bohr mag/cell

     iteration # 20     ecut=    70.00 Ry     beta= 0.70
     Davidson diagonalization with overlap
     ethr =  2.07E-06,  avg # of iterations =  2.5

     negative rho (up, down):  1.784E-03 2.107E-02

     total cpu time spent up to now is     1716.4 secs

     total energy              =    -949.83820480 Ry
     Harris-Foulkes estimate   =    -949.83866542 Ry
     estimated scf accuracy    <       0.00682684 Ry

     total magnetization       =    -0.02 Bohr mag/cell
     absolute magnetization    =     0.08 Bohr mag/cell

     iteration # 21     ecut=    70.00 Ry     beta= 0.70
     Davidson diagonalization with overlap
     ethr =  2.07E-06,  avg # of iterations =  2.0

     negative rho (up, down):  1.197E-03 1.594E-02

     total cpu time spent up to now is     1792.6 secs

     total energy              =    -949.83840930 Ry
     Harris-Foulkes estimate   =    -949.83843718 Ry
     estimated scf accuracy    <       0.00046160 Ry

     total magnetization       =    -0.02 Bohr mag/cell
     absolute magnetization    =     0.06 Bohr mag/cell

     iteration # 22     ecut=    70.00 Ry     beta= 0.70
     Davidson diagonalization with overlap
     ethr =  2.14E-07,  avg # of iterations =  2.0

     negative rho (up, down):  1.193E-03 1.993E-02

     total cpu time spent up to now is     1868.6 secs

     total energy              =    -949.83844242 Ry
     Harris-Foulkes estimate   =    -949.83845184 Ry
     estimated scf accuracy    <       0.00015968 Ry

     total magnetization       =    -0.02 Bohr mag/cell
     absolute magnetization    =     0.05 Bohr mag/cell

     iteration # 23     ecut=    70.00 Ry     beta= 0.70
     Davidson diagonalization with overlap
     ethr =  7.39E-08,  avg # of iterations =  2.0

     negative rho (up, down):  1.182E-03 1.790E-02

     total cpu time spent up to now is     1943.7 secs

     total energy              =    -949.83844692 Ry
     Harris-Foulkes estimate   =    -949.83845562 Ry
     estimated scf accuracy    <       0.00009910 Ry

     total magnetization       =    -0.02 Bohr mag/cell
     absolute magnetization    =     0.05 Bohr mag/cell

     iteration # 24     ecut=    70.00 Ry     beta= 0.70
     Davidson diagonalization with overlap
     ethr =  4.59E-08,  avg # of iterations =  2.5

     negative rho (up, down):  1.181E-03 3.525E-03

     total cpu time spent up to now is     2021.6 secs

     total energy              =    -949.83845527 Ry
     Harris-Foulkes estimate   =    -949.83845888 Ry
     estimated scf accuracy    <       0.00003923 Ry

     total magnetization       =    -0.01 Bohr mag/cell
     absolute magnetization    =     0.03 Bohr mag/cell

     iteration # 25     ecut=    70.00 Ry     beta= 0.70
     Davidson diagonalization with overlap
     ethr =  1.82E-08,  avg # of iterations =  2.0

     negative rho (up, down):  1.180E-03 7.235E-03

     total cpu time spent up to now is     2095.8 secs

     total energy              =    -949.83845689 Ry
     Harris-Foulkes estimate   =    -949.83845762 Ry
     estimated scf accuracy    <       0.00001999 Ry

     total magnetization       =    -0.01 Bohr mag/cell
     absolute magnetization    =     0.03 Bohr mag/cell

     iteration # 26     ecut=    70.00 Ry     beta= 0.70
     Davidson diagonalization with overlap
     ethr =  9.26E-09,  avg # of iterations =  2.0

     negative rho (up, down):  1.181E-03 5.028E-03

     total cpu time spent up to now is     2170.4 secs

     total energy              =    -949.83845772 Ry
     Harris-Foulkes estimate   =    -949.83845753 Ry
     estimated scf accuracy    <       0.00000541 Ry

     total magnetization       =    -0.01 Bohr mag/cell
     absolute magnetization    =     0.02 Bohr mag/cell

     iteration # 27     ecut=    70.00 Ry     beta= 0.70
     Davidson diagonalization with overlap
     ethr =  2.50E-09,  avg # of iterations =  3.0

     negative rho (up, down):  1.181E-03 2.623E-02

     total cpu time spent up to now is     2254.3 secs

     total energy              =    -949.83845631 Ry
     Harris-Foulkes estimate   =    -949.83846075 Ry
     estimated scf accuracy    <       0.00022691 Ry

     total magnetization       =    -0.01 Bohr mag/cell
     absolute magnetization    =     0.04 Bohr mag/cell

     iteration # 28     ecut=    70.00 Ry     beta= 0.70
     Davidson diagonalization with overlap
     ethr =  2.50E-09,  avg # of iterations =  3.0

     negative rho (up, down):  1.181E-03 1.620E-02

     total cpu time spent up to now is     2337.8 secs

     total energy              =    -949.83845900 Ry
     Harris-Foulkes estimate   =    -949.83845858 Ry
     estimated scf accuracy    <       0.00004385 Ry

     total magnetization       =    -0.01 Bohr mag/cell
     absolute magnetization    =     0.03 Bohr mag/cell

     iteration # 29     ecut=    70.00 Ry     beta= 0.70
     Davidson diagonalization with overlap
     ethr =  2.50E-09,  avg # of iterations =  2.0

     negative rho (up, down):  1.181E-03 1.763E-02

     total cpu time spent up to now is     2414.7 secs

     total energy              =    -949.83845895 Ry
     Harris-Foulkes estimate   =    -949.83845940 Ry
     estimated scf accuracy    <       0.00008671 Ry

     total magnetization       =    -0.01 Bohr mag/cell
     absolute magnetization    =     0.03 Bohr mag/cell

     iteration # 30     ecut=    70.00 Ry     beta= 0.70
     Davidson diagonalization with overlap
     ethr =  2.50E-09,  avg # of iterations =  1.0

     negative rho (up, down):  1.181E-03 1.842E-02

     total cpu time spent up to now is     2488.6 secs

     total energy              =    -949.83845779 Ry
     Harris-Foulkes estimate   =    -949.83845896 Ry
     estimated scf accuracy    <       0.00008224 Ry

     total magnetization       =    -0.01 Bohr mag/cell
     absolute magnetization    =     0.03 Bohr mag/cell

     iteration # 31     ecut=    70.00 Ry     beta= 0.70
     Davidson diagonalization with overlap
     ethr =  2.50E-09,  avg # of iterations =  2.0

     negative rho (up, down):  1.183E-03 1.370E-02

     total cpu time spent up to now is     2566.1 secs

     total energy              =    -949.83845617 Ry
     Harris-Foulkes estimate   =    -949.83845853 Ry
     estimated scf accuracy    <       0.00005150 Ry

     total magnetization       =    -0.01 Bohr mag/cell
     absolute magnetization    =     0.02 Bohr mag/cell

     iteration # 32     ecut=    70.00 Ry     beta= 0.70
     Davidson diagonalization with overlap
     ethr =  2.50E-09,  avg # of iterations =  2.5

     negative rho (up, down):  1.180E-03 4.350E-03

     total cpu time spent up to now is     2645.5 secs

     total energy              =    -949.83845768 Ry
     Harris-Foulkes estimate   =    -949.83845753 Ry
     estimated scf accuracy    <       0.00000109 Ry

     total magnetization       =    -0.01 Bohr mag/cell
     absolute magnetization    =     0.01 Bohr mag/cell

     iteration # 33     ecut=    70.00 Ry     beta= 0.70
     Davidson diagonalization with overlap
     ethr =  5.04E-10,  avg # of iterations =  2.0

     negative rho (up, down):  1.180E-03 1.366E-03

     total cpu time spent up to now is     2720.5 secs

     total energy              =    -949.83845779 Ry
     Harris-Foulkes estimate   =    -949.83845774 Ry
     estimated scf accuracy    <       0.00000035 Ry

     total magnetization       =    -0.01 Bohr mag/cell
     absolute magnetization    =     0.01 Bohr mag/cell

     iteration # 34     ecut=    70.00 Ry     beta= 0.70
     Davidson diagonalization with overlap
     ethr =  1.62E-10,  avg # of iterations =  2.5

     negative rho (up, down):  1.180E-03 5.373E-04

     total cpu time spent up to now is     2795.7 secs

     total energy              =    -949.83845784 Ry
     Harris-Foulkes estimate   =    -949.83845781 Ry
     estimated scf accuracy    <       0.00000023 Ry

     total magnetization       =    -0.01 Bohr mag/cell
     absolute magnetization    =     0.01 Bohr mag/cell

     iteration # 35     ecut=    70.00 Ry     beta= 0.70
     Davidson diagonalization with overlap
     ethr =  1.04E-10,  avg # of iterations =  2.0

     negative rho (up, down):  1.180E-03 3.384E-04

     total cpu time spent up to now is     2872.4 secs

     total energy              =    -949.83845790 Ry
     Harris-Foulkes estimate   =    -949.83845787 Ry
     estimated scf accuracy    <       0.00000007 Ry

     total magnetization       =    -0.01 Bohr mag/cell
     absolute magnetization    =     0.01 Bohr mag/cell

     iteration # 36     ecut=    70.00 Ry     beta= 0.70
     Davidson diagonalization with overlap
     ethr =  3.33E-11,  avg # of iterations =  2.5

     negative rho (up, down):  1.180E-03 2.499E-04

     total cpu time spent up to now is     2952.7 secs

     total energy              =    -949.83845793 Ry
     Harris-Foulkes estimate   =    -949.83845791 Ry
     estimated scf accuracy    <       0.00000003 Ry

     total magnetization       =    -0.00 Bohr mag/cell
     absolute magnetization    =     0.01 Bohr mag/cell

     iteration # 37     ecut=    70.00 Ry     beta= 0.70
     Davidson diagonalization with overlap
     ethr =  1.22E-11,  avg # of iterations =  3.0

     negative rho (up, down):  1.180E-03 8.208E-04

     total cpu time spent up to now is     3042.6 secs

     total energy              =    -949.83845794 Ry
     Harris-Foulkes estimate   =    -949.83845794 Ry
     estimated scf accuracy    <       0.00000028 Ry

     total magnetization       =    -0.00 Bohr mag/cell
     absolute magnetization    =     0.01 Bohr mag/cell

     iteration # 38     ecut=    70.00 Ry     beta= 0.70
     Davidson diagonalization with overlap
     ethr =  1.22E-11,  avg # of iterations =  2.0

     negative rho (up, down):  1.180E-03 1.153E-03

     total cpu time spent up to now is     3117.5 secs

     total energy              =    -949.83845793 Ry
     Harris-Foulkes estimate   =    -949.83845794 Ry
     estimated scf accuracy    <       0.00000037 Ry

     total magnetization       =    -0.00 Bohr mag/cell
     absolute magnetization    =     0.01 Bohr mag/cell

     iteration # 39     ecut=    70.00 Ry     beta= 0.70
     Davidson diagonalization with overlap
     ethr =  1.22E-11,  avg # of iterations =  1.5

     negative rho (up, down):  1.180E-03 1.043E-03

     total cpu time spent up to now is     3191.7 secs

     total energy              =    -949.83845794 Ry
     Harris-Foulkes estimate   =    -949.83845794 Ry
     estimated scf accuracy    <       0.00000023 Ry

     total magnetization       =    -0.00 Bohr mag/cell
     absolute magnetization    =     0.01 Bohr mag/cell

     iteration # 40     ecut=    70.00 Ry     beta= 0.70
     Davidson diagonalization with overlap
     ethr =  1.22E-11,  avg # of iterations =  3.0

     negative rho (up, down):  1.180E-03 1.346E-03

     total cpu time spent up to now is     3288.5 secs

     total energy              =    -949.83845797 Ry
     Harris-Foulkes estimate   =    -949.83845797 Ry
     estimated scf accuracy    <       0.00000050 Ry

     total magnetization       =    -0.00 Bohr mag/cell
     absolute magnetization    =     0.01 Bohr mag/cell

     iteration # 41     ecut=    70.00 Ry     beta= 0.70
     Davidson diagonalization with overlap
     ethr =  1.22E-11,  avg # of iterations =  1.5

     negative rho (up, down):  1.180E-03 1.659E-03

     total cpu time spent up to now is     3363.4 secs

     total energy              =    -949.83845797 Ry
     Harris-Foulkes estimate   =    -949.83845797 Ry
     estimated scf accuracy    <       0.00000062 Ry

     total magnetization       =    -0.00 Bohr mag/cell
     absolute magnetization    =     0.01 Bohr mag/cell

     iteration # 42     ecut=    70.00 Ry     beta= 0.70
     Davidson diagonalization with overlap
     ethr =  1.22E-11,  avg # of iterations =  1.5

     negative rho (up, down):  1.180E-03 1.720E-03

     total cpu time spent up to now is     3437.4 secs

     total energy              =    -949.83845794 Ry
     Harris-Foulkes estimate   =    -949.83845797 Ry
     estimated scf accuracy    <       0.00000058 Ry

     total magnetization       =    -0.00 Bohr mag/cell
     absolute magnetization    =     0.01 Bohr mag/cell

     iteration # 43     ecut=    70.00 Ry     beta= 0.70
     Davidson diagonalization with overlap
     ethr =  1.22E-11,  avg # of iterations =  2.5

     negative rho (up, down):  1.180E-03 8.676E-04

     total cpu time spent up to now is     3518.0 secs

     total energy              =    -949.83845795 Ry
     Harris-Foulkes estimate   =    -949.83845795 Ry
     estimated scf accuracy    <       0.00000006 Ry

     total magnetization       =    -0.00 Bohr mag/cell
     absolute magnetization    =     0.01 Bohr mag/cell

     iteration # 44     ecut=    70.00 Ry     beta= 0.70
     Davidson diagonalization with overlap
     ethr =  1.22E-11,  avg # of iterations =  2.0

     negative rho (up, down):  1.180E-03 2.949E-04

     total cpu time spent up to now is     3593.6 secs

     total energy              =    -949.83845796 Ry
     Harris-Foulkes estimate   =    -949.83845796 Ry
     estimated scf accuracy    <       0.00000002 Ry

     total magnetization       =    -0.00 Bohr mag/cell
     absolute magnetization    =     0.01 Bohr mag/cell

     iteration # 45     ecut=    70.00 Ry     beta= 0.70
     Davidson diagonalization with overlap
     ethr =  7.96E-12,  avg # of iterations =  2.0

     negative rho (up, down):  1.180E-03 9.671E-05

     total cpu time spent up to now is     3671.4 secs

     total energy              =    -949.83845797 Ry
     Harris-Foulkes estimate   =    -949.83845796 Ry
     estimated scf accuracy    <          4.9E-09 Ry

     total magnetization       =    -0.00 Bohr mag/cell
     absolute magnetization    =     0.01 Bohr mag/cell

     iteration # 46     ecut=    70.00 Ry     beta= 0.70
     Davidson diagonalization with overlap
     ethr =  2.28E-12,  avg # of iterations =  2.5

     negative rho (up, down):  1.180E-03 1.520E-04

     total cpu time spent up to now is     3758.7 secs

     total energy              =    -949.83845797 Ry
     Harris-Foulkes estimate   =    -949.83845797 Ry
     estimated scf accuracy    <       0.00000001 Ry

     total magnetization       =    -0.00 Bohr mag/cell
     absolute magnetization    =     0.00 Bohr mag/cell

     iteration # 47     ecut=    70.00 Ry     beta= 0.70
     Davidson diagonalization with overlap
     ethr =  2.28E-12,  avg # of iterations =  3.0

     negative rho (up, down):  1.180E-03 9.922E-05

     total cpu time spent up to now is     3846.8 secs

     total energy              =    -949.83845797 Ry
     Harris-Foulkes estimate   =    -949.83845798 Ry
     estimated scf accuracy    <       0.00000001 Ry

     total magnetization       =    -0.00 Bohr mag/cell
     absolute magnetization    =     0.00 Bohr mag/cell

     iteration # 48     ecut=    70.00 Ry     beta= 0.70
     Davidson diagonalization with overlap
     ethr =  2.28E-12,  avg # of iterations =  2.0

     negative rho (up, down):  1.180E-03 2.691E-04

     total cpu time spent up to now is     3923.1 secs

     total energy              =    -949.83845797 Ry
     Harris-Foulkes estimate   =    -949.83845797 Ry
     estimated scf accuracy    <       0.00000003 Ry

     total magnetization       =    -0.00 Bohr mag/cell
     absolute magnetization    =     0.00 Bohr mag/cell

     iteration # 49     ecut=    70.00 Ry     beta= 0.70
     Davidson diagonalization with overlap
     ethr =  2.28E-12,  avg # of iterations =  1.0

     negative rho (up, down):  1.180E-03 2.824E-04

     total cpu time spent up to now is     3996.7 secs

     total energy              =    -949.83845798 Ry
     Harris-Foulkes estimate   =    -949.83845797 Ry
     estimated scf accuracy    <       0.00000002 Ry

     total magnetization       =    -0.00 Bohr mag/cell
     absolute magnetization    =     0.00 Bohr mag/cell

     iteration # 50     ecut=    70.00 Ry     beta= 0.70
     Davidson diagonalization with overlap
     ethr =  2.28E-12,  avg # of iterations =  3.0

     negative rho (up, down):  1.180E-03 1.619E-04

     total cpu time spent up to now is     4089.9 secs

     total energy              =    -949.83845798 Ry
     Harris-Foulkes estimate   =    -949.83845798 Ry
     estimated scf accuracy    <       0.00000001 Ry

     total magnetization       =    -0.00 Bohr mag/cell
     absolute magnetization    =     0.00 Bohr mag/cell

     iteration # 51     ecut=    70.00 Ry     beta= 0.70
     Davidson diagonalization with overlap
     ethr =  2.28E-12,  avg # of iterations =  2.0

     negative rho (up, down):  1.180E-03 2.337E-04

     total cpu time spent up to now is     4167.5 secs

     total energy              =    -949.83845798 Ry
     Harris-Foulkes estimate   =    -949.83845798 Ry
     estimated scf accuracy    <       0.00000002 Ry

     total magnetization       =    -0.00 Bohr mag/cell
     absolute magnetization    =     0.00 Bohr mag/cell

     iteration # 52     ecut=    70.00 Ry     beta= 0.70
     Davidson diagonalization with overlap
     ethr =  2.28E-12,  avg # of iterations =  2.0

     negative rho (up, down):  1.180E-03 2.789E-04

     total cpu time spent up to now is     4242.5 secs

     total energy              =    -949.83845798 Ry
     Harris-Foulkes estimate   =    -949.83845798 Ry
     estimated scf accuracy    <       0.00000002 Ry

     total magnetization       =    -0.00 Bohr mag/cell
     absolute magnetization    =     0.00 Bohr mag/cell

     iteration # 53     ecut=    70.00 Ry     beta= 0.70
     Davidson diagonalization with overlap
     ethr =  2.28E-12,  avg # of iterations =  2.0

     negative rho (up, down):  1.180E-03 2.140E-04

     total cpu time spent up to now is     4317.1 secs

     total energy              =    -949.83845798 Ry
     Harris-Foulkes estimate   =    -949.83845798 Ry
     estimated scf accuracy    <          8.1E-09 Ry

     total magnetization       =    -0.00 Bohr mag/cell
     absolute magnetization    =     0.00 Bohr mag/cell

     iteration # 54     ecut=    70.00 Ry     beta= 0.70
     Davidson diagonalization with overlap
     ethr =  2.28E-12,  avg # of iterations =  2.0

     negative rho (up, down):  1.180E-03 7.933E-05

     total cpu time spent up to now is     4392.4 secs

     total energy              =    -949.83845798 Ry
     Harris-Foulkes estimate   =    -949.83845798 Ry
     estimated scf accuracy    <          4.6E-09 Ry

     total magnetization       =    -0.00 Bohr mag/cell
     absolute magnetization    =     0.00 Bohr mag/cell

     iteration # 55     ecut=    70.00 Ry     beta= 0.70
     Davidson diagonalization with overlap
     ethr =  2.13E-12,  avg # of iterations =  2.0

     negative rho (up, down):  1.180E-03 3.018E-05

     total cpu time spent up to now is     4468.9 secs

     total energy              =    -949.83845799 Ry
     Harris-Foulkes estimate   =    -949.83845799 Ry
     estimated scf accuracy    <          1.4E-09 Ry

     total magnetization       =    -0.00 Bohr mag/cell
     absolute magnetization    =     0.00 Bohr mag/cell

     iteration # 56     ecut=    70.00 Ry     beta= 0.70
     Davidson diagonalization with overlap
     ethr =  6.33E-13,  avg # of iterations =  2.0

     negative rho (up, down):  1.180E-03 4.070E-05

     total cpu time spent up to now is     4549.3 secs

     total energy              =    -949.83845799 Ry
     Harris-Foulkes estimate   =    -949.83845799 Ry
     estimated scf accuracy    <          1.5E-09 Ry

     total magnetization       =    -0.00 Bohr mag/cell
     absolute magnetization    =     0.00 Bohr mag/cell

     iteration # 57     ecut=    70.00 Ry     beta= 0.70
     Davidson diagonalization with overlap
     ethr =  6.33E-13,  avg # of iterations =  2.5

     negative rho (up, down):  1.180E-03 3.292E-05

     total cpu time spent up to now is     4633.3 secs

     total energy              =    -949.83845799 Ry
     Harris-Foulkes estimate   =    -949.83845799 Ry
     estimated scf accuracy    <          2.4E-09 Ry

     total magnetization       =    -0.00 Bohr mag/cell
     absolute magnetization    =     0.00 Bohr mag/cell

     iteration # 58     ecut=    70.00 Ry     beta= 0.70
     Davidson diagonalization with overlap
     ethr =  6.33E-13,  avg # of iterations =  2.0

     negative rho (up, down):  1.180E-03 1.123E-04

     total cpu time spent up to now is     4708.7 secs

     total energy              =    -949.83845799 Ry
     Harris-Foulkes estimate   =    -949.83845799 Ry
     estimated scf accuracy    <          6.7E-09 Ry

     total magnetization       =    -0.00 Bohr mag/cell
     absolute magnetization    =     0.00 Bohr mag/cell

     iteration # 59     ecut=    70.00 Ry     beta= 0.70
     Davidson diagonalization with overlap
     ethr =  6.33E-13,  avg # of iterations =  1.0

     negative rho (up, down):  1.180E-03 1.109E-04

     total cpu time spent up to now is     4782.3 secs

     total energy              =    -949.83845799 Ry
     Harris-Foulkes estimate   =    -949.83845799 Ry
     estimated scf accuracy    <          4.3E-09 Ry

     total magnetization       =    -0.00 Bohr mag/cell
     absolute magnetization    =     0.00 Bohr mag/cell

     iteration # 60     ecut=    70.00 Ry     beta= 0.70
     Davidson diagonalization with overlap
     ethr =  6.33E-13,  avg # of iterations =  2.0

     negative rho (up, down):  1.180E-03 6.676E-05

     total cpu time spent up to now is     4865.1 secs

     total energy              =    -949.83845799 Ry
     Harris-Foulkes estimate   =    -949.83845799 Ry
     estimated scf accuracy    <          2.3E-09 Ry

     total magnetization       =    -0.00 Bohr mag/cell
     absolute magnetization    =     0.00 Bohr mag/cell

     iteration # 61     ecut=    70.00 Ry     beta= 0.70
     Davidson diagonalization with overlap
     ethr =  6.33E-13,  avg # of iterations =  1.5

     negative rho (up, down):  1.180E-03 6.790E-05

     total cpu time spent up to now is     4939.7 secs

     total energy              =    -949.83845799 Ry
     Harris-Foulkes estimate   =    -949.83845799 Ry
     estimated scf accuracy    <          1.8E-09 Ry

     total magnetization       =    -0.00 Bohr mag/cell
     absolute magnetization    =     0.00 Bohr mag/cell

     iteration # 62     ecut=    70.00 Ry     beta= 0.70
     Davidson diagonalization with overlap
     ethr =  6.33E-13,  avg # of iterations =  1.5

     negative rho (up, down):  1.180E-03 9.671E-05

     total cpu time spent up to now is     5014.6 secs

     total energy              =    -949.83845799 Ry
     Harris-Foulkes estimate   =    -949.83845799 Ry
     estimated scf accuracy    <          3.0E-09 Ry

     total magnetization       =    -0.00 Bohr mag/cell
     absolute magnetization    =     0.00 Bohr mag/cell

     iteration # 63     ecut=    70.00 Ry     beta= 0.70
     Davidson diagonalization with overlap
     ethr =  6.33E-13,  avg # of iterations =  1.5

     negative rho (up, down):  1.180E-03 7.476E-05

     total cpu time spent up to now is     5088.7 secs

     total energy              =    -949.83845799 Ry
     Harris-Foulkes estimate   =    -949.83845799 Ry
     estimated scf accuracy    <          1.7E-09 Ry

     total magnetization       =    -0.00 Bohr mag/cell
     absolute magnetization    =     0.00 Bohr mag/cell

     iteration # 64     ecut=    70.00 Ry     beta= 0.70
     Davidson diagonalization with overlap
     ethr =  6.33E-13,  avg # of iterations =  2.0

     negative rho (up, down):  1.180E-03 2.652E-05

     total cpu time spent up to now is     5165.5 secs

     total energy              =    -949.83845799 Ry
     Harris-Foulkes estimate   =    -949.83845799 Ry
     estimated scf accuracy    <          1.3E-09 Ry

     total magnetization       =    -0.00 Bohr mag/cell
     absolute magnetization    =     0.00 Bohr mag/cell

     iteration # 65     ecut=    70.00 Ry     beta= 0.70
     Davidson diagonalization with overlap
     ethr =  5.91E-13,  avg # of iterations =  2.0

     negative rho (up, down):  1.180E-03 0.000E+00

     Magnetic moment per site:
     atom:    1    charge:    0.2098    magn:    0.0000    constr:    0.0000
     atom:    2    charge:    0.2097    magn:   -0.0000    constr:    0.0000
     atom:    3    charge:    1.7101    magn:   -0.0000    constr:    0.0000
     atom:    4    charge:    1.7098    magn:    0.0000    constr:    0.0000
     atom:    5    charge:    1.7115    magn:   -0.0000    constr:    0.0000
     atom:    6    charge:    1.7093    magn:    0.0000    constr:    0.0000
     atom:    7    charge:    1.7115    magn:   -0.0000    constr:    0.0000
     atom:    8    charge:    1.7098    magn:    0.0000    constr:    0.0000
     atom:    9    charge:    1.7101    magn:   -0.0000    constr:    0.0000
     atom:   10    charge:    1.7123    magn:    0.0000    constr:    0.0000
     atom:   11    charge:    1.7102    magn:   -0.0000    constr:    0.0000
     atom:   12    charge:    1.7124    magn:    0.0000    constr:    0.0000
     atom:   13    charge:    1.7102    magn:   -0.0000    constr:    0.0000
     atom:   14    charge:    1.7122    magn:    0.0000    constr:    0.0000
     atom:   15    charge:    1.7063    magn:   -0.0000    constr:    0.0000
     atom:   16    charge:    1.7057    magn:    0.0000    constr:    0.0000
     atom:   17    charge:    1.7152    magn:   -0.0000    constr:    0.0000
     atom:   18    charge:    1.7057    magn:    0.0000    constr:    0.0000
     atom:   19    charge:    1.7063    magn:   -0.0000    constr:    0.0000
     atom:   20    charge:    1.7122    magn:    0.0000    constr:    0.0000
     atom:   21    charge:    1.7102    magn:   -0.0000    constr:    0.0000
     atom:   22    charge:    1.7123    magn:    0.0000    constr:    0.0000
     atom:   23    charge:    1.7101    magn:   -0.0000    constr:    0.0000
     atom:   24    charge:    1.7098    magn:    0.0000    constr:    0.0000
     atom:   25    charge:    1.7063    magn:   -0.0000    constr:    0.0000
     atom:   26    charge:    1.7059    magn:    0.0000    constr:    0.0000
     atom:   27    charge:    1.8131    magn:   -0.0000    constr:    0.0000
     atom:   28    charge:   13.3977    magn:    0.0000    constr:    0.0000
     atom:   29    charge:    1.8130    magn:   -0.0000    constr:    0.0000
     atom:   30    charge:    1.7057    magn:    0.0000    constr:    0.0000
     atom:   31    charge:    1.7063    magn:   -0.0000    constr:    0.0000
     atom:   32    charge:    1.7098    magn:    0.0000    constr:    0.0000
     atom:   33    charge:    1.7115    magn:   -0.0000    constr:    0.0000
     atom:   34    charge:    1.7100    magn:    0.0000    constr:    0.0000
     atom:   35    charge:    1.7115    magn:   -0.0000    constr:    0.0000
     atom:   36    charge:    1.7092    magn:    0.0000    constr:    0.0000
     atom:   37    charge:    1.7153    magn:   -0.0000    constr:    0.0000
     atom:   38    charge:    1.7059    magn:    0.0000    constr:    0.0000
     atom:   39    charge:    1.8131    magn:   -0.0000    constr:    0.0000
     atom:   40    charge:    1.7057    magn:    0.0000    constr:    0.0000
     atom:   41    charge:    1.7152    magn:   -0.0000    constr:    0.0000
     atom:   42    charge:    1.7093    magn:    0.0000    constr:    0.0000
     atom:   43    charge:    1.7115    magn:   -0.0000    constr:    0.0000
     atom:   44    charge:    1.7100    magn:    0.0000    constr:    0.0000
     atom:   45    charge:    1.7159    magn:   -0.0000    constr:    0.0000
     atom:   46    charge:    1.7100    magn:    0.0000    constr:    0.0000
     atom:   47    charge:    1.7115    magn:   -0.0000    constr:    0.0000
     atom:   48    charge:    1.7098    magn:    0.0000    constr:    0.0000
     atom:   49    charge:    1.7063    magn:   -0.0000    constr:    0.0000
     atom:   50    charge:    1.7122    magn:    0.0000    constr:    0.0000
     atom:   51    charge:    1.7063    magn:   -0.0000    constr:    0.0000
     atom:   52    charge:    1.7098    magn:    0.0000    constr:    0.0000

     total cpu time spent up to now is     5242.1 secs

     End of self-consistent calculation

 ------ SPIN UP ------------


          k = 0.0000 0.0000 0.0000 ( 87777 PWs)   bands (ev):

  -107.8168 -69.0272 -69.0265 -66.9420 -19.8747 -19.0528 -19.0519 -18.9351
   -18.9347 -18.8494 -18.7811 -17.2023 -17.2017 -17.1691 -17.1198 -17.1180
   -16.7933 -16.3472 -16.3466 -16.2021 -16.2012 -16.1891 -15.7072 -14.3289
   -14.3283 -14.1637 -14.0312 -14.0307 -13.5357 -13.1719 -13.1715 -13.1189
   -12.9432 -12.9424 -12.5437 -12.1107 -12.1104 -11.7440 -11.5992 -11.5990
   -10.9719 -10.4626 -10.4624  -9.5937  -9.3769  -9.3763  -9.2505  -9.2353
    -9.2351  -9.2246  -8.9870  -8.9868  -8.6137  -8.6132  -8.4831  -7.9668
    -7.9328  -7.8785  -7.8683  -7.6903  -7.5714  -7.5708  -7.4702  -7.4699
    -6.8514  -6.8469  -6.8391  -6.7913  -6.7548  -6.6230  -6.6221  -6.5604
    -6.5547  -6.5546  -6.5180  -6.4507  -6.4419  -6.3959  -6.3055  -6.2883
    -6.2873  -5.5441  -5.5438  -5.0226  -4.9415  -4.8329  -4.8327  -4.7772
    -4.7349  -4.7338  -4.4436  -4.4167  -4.4158  -3.8573  -3.8566  -3.7856
    -3.7375  -3.7375  -3.7057  -3.4376  -3.4355  -3.3662  -1.9156  -1.8314
    -1.8309  -1.6115  -1.6091  -1.1746   0.0818   0.0834   0.8902   0.9459
     0.9486   1.2015   1.2018   1.5424   2.7929   2.7985   2.8173   2.8489
     3.0359   3.0387   3.4708   3.9026   3.9303   4.0523   4.0562   4.0798
     4.1365   4.4935

     occupation numbers 
     1.0000   1.0000   1.0000   1.0000   1.0000   1.0000   1.0000   1.0000
     1.0000   1.0000   1.0000   1.0000   1.0000   1.0000   1.0000   1.0000
     1.0000   1.0000   1.0000   1.0000   1.0000   1.0000   1.0000   1.0000
     1.0000   1.0000   1.0000   1.0000   1.0000   1.0000   1.0000   1.0000
     1.0000   1.0000   1.0000   1.0000   1.0000   1.0000   1.0000   1.0000
     1.0000   1.0000   1.0000   1.0000   1.0000   1.0000   1.0000   1.0000
     1.0000   1.0000   1.0000   1.0000   1.0000   1.0000   1.0000   1.0000
     1.0000   1.0000   1.0000   1.0000   1.0000   1.0000   1.0000   1.0000
     1.0000   1.0000   1.0000   1.0000   1.0000   1.0000   1.0000   1.0000
     1.0000   1.0000   1.0000   1.0000   1.0000   1.0000   1.0000   1.0000
     1.0000   1.0000   1.0000   1.0000   1.0000   1.0000   1.0000   1.0000
     1.0000   1.0000   1.0000   1.0000   1.0000   1.0000   1.0000   1.0000
     1.0000   1.0000   1.0000   1.0000   1.0000   1.0000   1.0000   1.0000
     1.0000   1.0000   1.0000   0.9997   0.0000   0.0000   0.0000   0.0000
     0.0000   0.0000   0.0000   0.0000   0.0000   0.0000   0.0000   0.0000
     0.0000   0.0000   0.0000   0.0000   0.0000   0.0000   0.0000   0.0000
     0.0000   0.0000

 ------ SPIN DOWN ----------


          k = 0.0000 0.0000 0.0000 ( 87777 PWs)   bands (ev):

  -107.8168 -69.0271 -69.0265 -66.9420 -19.8748 -19.0528 -19.0519 -18.9351
   -18.9347 -18.8494 -18.7811 -17.2023 -17.2017 -17.1691 -17.1199 -17.1180
   -16.7933 -16.3472 -16.3466 -16.2021 -16.2013 -16.1891 -15.7072 -14.3289
   -14.3283 -14.1637 -14.0312 -14.0307 -13.5358 -13.1719 -13.1715 -13.1189
   -12.9432 -12.9424 -12.5437 -12.1107 -12.1104 -11.7441 -11.5992 -11.5990
   -10.9719 -10.4627 -10.4624  -9.5937  -9.3770  -9.3763  -9.2505  -9.2353
    -9.2351  -9.2247  -8.9870  -8.9868  -8.6137  -8.6132  -8.4831  -7.9669
    -7.9328  -7.8786  -7.8684  -7.6903  -7.5714  -7.5708  -7.4702  -7.4699
    -6.8514  -6.8470  -6.8392  -6.7914  -6.7548  -6.6230  -6.6221  -6.5604
    -6.5547  -6.5546  -6.5181  -6.4508  -6.4419  -6.3959  -6.3055  -6.2883
    -6.2873  -5.5441  -5.5438  -5.0226  -4.9415  -4.8329  -4.8327  -4.7772
    -4.7350  -4.7339  -4.4437  -4.4168  -4.4158  -3.8574  -3.8567  -3.7857
    -3.7376  -3.7375  -3.7057  -3.4376  -3.4356  -3.3662  -1.9156  -1.8314
    -1.8309  -1.6116  -1.6091  -1.1748   0.0818   0.0833   0.8902   0.9459
     0.9486   1.2015   1.2018   1.5424   2.7928   2.7985   2.8173   2.8488
     3.0359   3.0387   3.4708   3.9026   3.9303   4.0523   4.0562   4.0798
     4.1365   4.5048

     occupation numbers 
     1.0000   1.0000   1.0000   1.0000   1.0000   1.0000   1.0000   1.0000
     1.0000   1.0000   1.0000   1.0000   1.0000   1.0000   1.0000   1.0000
     1.0000   1.0000   1.0000   1.0000   1.0000   1.0000   1.0000   1.0000
     1.0000   1.0000   1.0000   1.0000   1.0000   1.0000   1.0000   1.0000
     1.0000   1.0000   1.0000   1.0000   1.0000   1.0000   1.0000   1.0000
     1.0000   1.0000   1.0000   1.0000   1.0000   1.0000   1.0000   1.0000
     1.0000   1.0000   1.0000   1.0000   1.0000   1.0000   1.0000   1.0000
     1.0000   1.0000   1.0000   1.0000   1.0000   1.0000   1.0000   1.0000
     1.0000   1.0000   1.0000   1.0000   1.0000   1.0000   1.0000   1.0000
     1.0000   1.0000   1.0000   1.0000   1.0000   1.0000   1.0000   1.0000
     1.0000   1.0000   1.0000   1.0000   1.0000   1.0000   1.0000   1.0000
     1.0000   1.0000   1.0000   1.0000   1.0000   1.0000   1.0000   1.0000
     1.0000   1.0000   1.0000   1.0000   1.0000   1.0000   1.0000   1.0000
     1.0000   1.0000   1.0000   1.0003   0.0000   0.0000   0.0000   0.0000
     0.0000   0.0000   0.0000   0.0000   0.0000   0.0000   0.0000   0.0000
     0.0000   0.0000   0.0000   0.0000   0.0000   0.0000   0.0000   0.0000
     0.0000   0.0000

     the Fermi energy is    -1.0494 ev

!    total energy              =    -949.83845799 Ry
     Harris-Foulkes estimate   =    -949.83845799 Ry
     estimated scf accuracy    <          3.7E-10 Ry

     The total energy is the sum of the following terms:

     one-electron contribution =   -2977.29970676 Ry
     hartree contribution      =    1531.52819411 Ry
     xc contribution           =    -263.52347848 Ry
     ewald contribution        =     759.45490178 Ry
     smearing contrib. (-TS)   =       0.00163136 Ry

     total magnetization       =    -0.00 Bohr mag/cell
     absolute magnetization    =     0.00 Bohr mag/cell

     convergence has been achieved in  65 iterations

     negative rho (up, down):  1.180E-03 0.000E+00

     Forces acting on atoms (cartesian axes, Ry/au):

     atom    1 type  1   force =     0.00002185   -0.00001262    0.00073105
     atom    2 type  1   force =     0.00034372   -0.00019845    0.00123649
     atom    3 type  2   force =     0.01067235   -0.00616169    0.00000539
     atom    4 type  2   force =    -0.00789205    0.00752402    0.00000214
     atom    5 type  2   force =    -0.00078774   -0.00359167    0.00000154
     atom    6 type  2   force =     0.00444905    0.00256029   -0.00000567
     atom    7 type  2   force =    -0.00349750    0.00113588   -0.00000396
     atom    8 type  2   force =     0.00254850   -0.01062757   -0.00000411
     atom    9 type  2   force =    -0.00002288    0.01230341    0.00000069
     atom   10 type  2   force =    -0.00001107   -0.00293724    0.00000346
     atom   11 type  2   force =     0.00004977    0.00001888   -0.00000720
     atom   12 type  2   force =    -0.00256097    0.00147857    0.00000279
     atom   13 type  2   force =     0.00000854   -0.00005254   -0.00000720
     atom   14 type  2   force =     0.00009428   -0.00380987   -0.00001226
     atom   15 type  2   force =     0.01619282   -0.00754767    0.00001902
     atom   16 type  2   force =    -0.03206471    0.01599830    0.00004461
     atom   17 type  2   force =    -0.01569233   -0.00915215    0.00001612
     atom   18 type  2   force =    -0.00197380   -0.03566530    0.00004807
     atom   19 type  2   force =     0.00152488    0.01788662    0.00001025
     atom   20 type  2   force =    -0.00331953    0.00191653    0.00000061
     atom   21 type  2   force =    -0.00006181    0.00003569    0.00000271
     atom   22 type  2   force =     0.00253819    0.00147821    0.00000346
     atom   23 type  2   force =    -0.01066651   -0.00613189    0.00000069
     atom   24 type  2   force =     0.00778739    0.00752216    0.00000368
     atom   25 type  2   force =    -0.01620801   -0.00784914    0.00007633
     atom   26 type  2   force =     0.03178573    0.01596283   -0.00030681
     atom   27 type  2   force =     0.00003198   -0.74526783   -0.00041771
     atom   28 type  3   force =    -0.00053785    0.00031053   -0.00076058
     atom   29 type  2   force =    -0.64547545    0.37266543   -0.00020542
     atom   30 type  2   force =     0.02990016    0.01954201    0.00004807
     atom   31 type  2   force =    -0.01472783   -0.01026389    0.00001025
     atom   32 type  2   force =     0.01047800    0.00310672   -0.00000411
     atom   33 type  2   force =    -0.00273245    0.00246098   -0.00000396
     atom   34 type  2   force =     0.00398449    0.00232621    0.00000099
     atom   35 type  2   force =     0.00082770   -0.00345228   -0.00003046
     atom   36 type  2   force =    -0.00415070    0.00239641    0.00004968
     atom   37 type  2   force =     0.01573956   -0.00908724    0.00004778
     atom   38 type  2   force =     0.00206865   -0.03550867   -0.00030681
     atom   39 type  2   force =     0.64543686    0.37260622   -0.00041771
     atom   40 type  2   force =    -0.02988728    0.01976970    0.00004461
     atom   41 type  2   force =     0.00007983    0.01816603    0.00001612
     atom   42 type  2   force =     0.00000725   -0.00513313   -0.00000567
     atom   43 type  2   force =     0.00271661    0.00247804    0.00000154
     atom   44 type  2   force =    -0.00397356    0.00229414    0.00000027
     atom   45 type  2   force =    -0.00001576    0.00000910    0.00001180
     atom   46 type  2   force =    -0.00002231   -0.00461377    0.00000099
     atom   47 type  2   force =     0.00340361    0.00100933   -0.00003046
     atom   48 type  2   force =    -0.00262069   -0.01050516    0.00000368
     atom   49 type  2   force =    -0.00130645    0.01796112    0.00007633
     atom   50 type  2   force =     0.00334658    0.00182328   -0.00001226
     atom   51 type  2   force =     0.01463289   -0.01024956    0.00001902
     atom   52 type  2   force =    -0.01046201    0.00307271    0.00000214
     The non-local contrib.  to forces
     atom    1 type  1   force =    -0.00004572    0.00002640    0.12842359
     atom    2 type  1   force =     0.00002760   -0.00001594   -0.12848027
     atom    3 type  2   force =    -0.00223470    0.00129020   -0.00005307
     atom    4 type  2   force =     0.01669659    0.01542704   -0.00005051
     atom    5 type  2   force =     0.00866709    0.00352760   -0.00006501
     atom    6 type  2   force =     0.01000276    0.00577029   -0.00005821
     atom    7 type  2   force =     0.00739267    0.00577454   -0.00004963
     atom    8 type  2   force =     0.02170999    0.00674509   -0.00002837
     atom    9 type  2   force =    -0.00001448   -0.00258388   -0.00004940
     atom   10 type  2   force =     0.00001832   -0.00263779   -0.00004535
     atom   11 type  2   force =    -0.00902991   -0.00524962   -0.00006645
     atom   12 type  2   force =    -0.00229059    0.00132247   -0.00004878
     atom   13 type  2   force =     0.00003134    0.01044494   -0.00006645
     atom   14 type  2   force =     0.00007200    0.01226101   -0.00016547
     atom   15 type  2   force =     0.01744555    0.05012390   -0.00009655
     atom   16 type  2   force =     0.09749534    0.08710509   -0.00003817
     atom   17 type  2   force =    -0.00334484   -0.00194770   -0.00001451
     atom   18 type  2   force =     0.12408117    0.04076974   -0.00008134
     atom   19 type  2   force =     0.05213437   -0.00994374   -0.00007960
     atom   20 type  2   force =     0.01057086   -0.00610309   -0.00002842
     atom   21 type  2   force =     0.00904128   -0.00521998   -0.00002817
     atom   22 type  2   force =     0.00229355    0.00130303   -0.00004535
     atom   23 type  2   force =     0.00223046    0.00130448   -0.00004940
     atom   24 type  2   force =    -0.01674399    0.01545819   -0.00016123
     atom   25 type  2   force =    -0.01740984    0.05025974   -0.00019995
     atom   26 type  2   force =    -0.09703581    0.08744864    0.00027183
     atom   27 type  2   force =     0.00051128   -0.29989646   -0.00035703
     atom   28 type  3   force =    -0.00040755    0.00023530    0.00160189
     atom   29 type  2   force =    -0.25949209    0.14981783    0.00001433
     atom   30 type  2   force =     0.02673296   -0.12784232   -0.00008134
     atom   31 type  2   force =     0.03467872   -0.04017782   -0.00007960
     atom   32 type  2   force =     0.00501358   -0.02217395   -0.00002837
     atom   33 type  2   force =    -0.00130456   -0.00928951   -0.00004963
     atom   34 type  2   force =    -0.01346248   -0.00774643   -0.00005051
     atom   35 type  2   force =    -0.00870925    0.00363605   -0.00019967
     atom   36 type  2   force =    -0.01023966    0.00591187   -0.00029305
     atom   37 type  2   force =     0.00282570   -0.00163142    0.00093844
     atom   38 type  2   force =    -0.12425064    0.04031116    0.00027183
     atom   39 type  2   force =     0.25997359    0.14950545   -0.00035703
     atom   40 type  2   force =    -0.02668755   -0.12798598   -0.00003817
     atom   41 type  2   force =     0.00001434    0.00387057   -0.00001451
     atom   42 type  2   force =     0.00000416   -0.01154779   -0.00005821
     atom   43 type  2   force =     0.00127855   -0.00926972   -0.00006501
     atom   44 type  2   force =     0.01345008   -0.00776541   -0.00003293
     atom   45 type  2   force =     0.00000128   -0.00000074   -0.00003681
     atom   46 type  2   force =    -0.00002264    0.01553207   -0.00005051
     atom   47 type  2   force =    -0.00750354    0.00572441   -0.00019967
     atom   48 type  2   force =    -0.02175918    0.00677163   -0.00016123
     atom   49 type  2   force =    -0.05223114   -0.01005250   -0.00019995
     atom   50 type  2   force =    -0.01058234   -0.00619286   -0.00016547
     atom   51 type  2   force =    -0.03468580   -0.04017024   -0.00009655
     atom   52 type  2   force =    -0.00501191   -0.02217319   -0.00005051
     The ionic contribution  to forces
     atom    1 type  1   force =     0.29913263   -0.17270431    1.95821725
     atom    2 type  1   force =     0.16878790   -0.09744974    2.87889604
     atom    3 type  2   force =     0.06629788   -0.03827709   -0.02575935
     atom    4 type  2   force =    -0.41850046   -0.68637700   -0.03221896
     atom    5 type  2   force =    -0.54824146   -0.44999236   -0.02504657
     atom    6 type  2   force =    -1.20321436   -0.68524955   -0.03221896
     atom    7 type  2   force =    -0.63164979   -0.23904814   -0.02575935
     atom    8 type  2   force =    -0.75401204    0.00782997   -0.02575935
     atom    9 type  2   force =     0.04965810    0.10362770   -0.03221896
     atom   10 type  2   force =     0.03217576    0.17381306   -0.02504657
     atom   11 type  2   force =     0.41975761    0.25177376   -0.03221896
     atom   12 type  2   force =     0.14121960   -0.08153318   -0.02575935
     atom   13 type  2   force =    -0.00816366   -0.48940763   -0.03221896
     atom   14 type  2   force =    -0.03593204   -1.43860322   -0.06871520
     atom   15 type  2   force =    -0.67567800   -1.84737536   -0.06871520
     atom   16 type  2   force =    -2.60688330   -4.36463542   -0.12189179
     atom   17 type  2   force =    -3.25274425   -1.83648202   -0.06871520
     atom   18 type  2   force =    -5.06316369    0.02217753   -0.06871520
     atom   19 type  2   force =    -1.87709441    0.37995444   -0.03221896
     atom   20 type  2   force =    -1.18573202    0.68458270   -0.02504657
     atom   21 type  2   force =    -0.37826317    0.21839034   -0.01969602
     atom   22 type  2   force =    -0.13443865   -0.11477156   -0.02504657
     atom   23 type  2   force =    -0.06491517   -0.09481902   -0.03221896
     atom   24 type  2   force =     0.41293806   -0.75958477   -0.06871520
     atom   25 type  2   force =     0.60133335   -1.91358062   -0.12189179
     atom   26 type  2   force =     2.47644350   -4.44369970   -0.26845526
     atom   27 type  2   force =    -0.13369158  -15.44531637   -0.26845526
     atom   28 type  3   force =    -0.60161211    0.34734090   -1.20804868
     atom   29 type  2   force =   -13.43963038    7.75937421   -0.12189179
     atom   30 type  2   force =    -2.55078815    4.37373961   -0.06871520
     atom   31 type  2   force =    -1.26759740    1.43563423   -0.03221896
     atom   32 type  2   force =    -0.38378698    0.64907860   -0.02575935
     atom   33 type  2   force =    -0.10880314    0.66654884   -0.02575935
     atom   34 type  2   force =     0.17593309    0.04423478   -0.03221896
     atom   35 type  2   force =     0.59041035   -0.51582933   -0.06871520
     atom   36 type  2   force =     1.28399606   -0.74131548   -0.12189179
     atom   37 type  2   force =     3.27615914   -1.89149136   -0.26845526
     atom   38 type  2   force =     5.08657858    0.07718687   -0.26845526
     atom   39 type  2   force =    13.30919057    7.83843850   -0.26845526
     atom   40 type  2   force =     2.47644350    4.43994487   -0.12189179
     atom   41 type  2   force =    -0.03593204    3.73520017   -0.06871520
     atom   42 type  2   force =    -0.00816366    1.38463898   -0.03221896
     atom   43 type  2   force =     0.11558409    0.69978722   -0.02504657
     atom   44 type  2   force =    -0.13443865    0.07761819   -0.01969602
     atom   45 type  2   force =     0.03217576   -0.01857668   -0.02504657
     atom   46 type  2   force =     0.04965810   -0.17447992   -0.03221896
     atom   47 type  2   force =     0.74192648   -0.25339569   -0.06871520
     atom   48 type  2   force =     0.86428874    0.02217753   -0.06871520
     atom   49 type  2   force =     1.95787611    0.43602036   -0.12189179
     atom   50 type  2   force =     1.22790091    0.75041967   -0.06871520
     atom   51 type  2   force =     1.26203500    1.50884200   -0.06871520
     atom   52 type  2   force =     0.38516968    0.70562053   -0.03221896
     The local contribution  to forces
     atom    1 type  1   force =    -0.29906472    0.17266510   -2.08590929
     atom    2 type  1   force =    -0.16847138    0.09726700   -2.74917886
     atom    3 type  2   force =    -0.05349290    0.03088414    0.02581711
     atom    4 type  2   force =     0.39426076    0.67870472    0.03227137
     atom    5 type  2   force =     0.53892523    0.44295334    0.02511248
     atom    6 type  2   force =     1.19785387    0.68214861    0.03227165
     atom    7 type  2   force =     0.62090145    0.23448775    0.02580384
     atom    8 type  2   force =     0.73522657   -0.02501492    0.02578323
     atom    9 type  2   force =    -0.04966693   -0.08885648    0.03226914
     atom   10 type  2   force =    -0.03220489   -0.17414093    0.02509504
     atom   11 type  2   force =    -0.41084158   -0.24660128    0.03227723
     atom   12 type  2   force =    -0.14151459    0.08170348    0.02580975
     atom   13 type  2   force =     0.00814218    0.47909989    0.03227723
     atom   14 type  2   force =     0.03595447    1.42273702    0.06886627
     atom   15 type  2   force =     0.67464763    1.79072859    0.06882998
     atom   16 type  2   force =     2.47930546    4.29496698    0.12197599
     atom   17 type  2   force =     3.24031186    1.82922929    0.06874675
     atom   18 type  2   force =     4.93934908   -0.09761383    0.06884379
     atom   19 type  2   force =     1.82748986   -0.35244478    0.03230801
     atom   20 type  2   force =     1.17202192   -0.67666717    0.02507640
     atom   21 type  2   force =     0.36932429   -0.21322948    0.01972693
     atom   22 type  2   force =     0.13470803    0.11496071    0.02509504
     atom   23 type  2   force =     0.05211850    0.08744106    0.03226914
     atom   24 type  2   force =    -0.38875716    0.75187721    0.06887784
     atom   25 type  2   force =    -0.60035469    1.85649640    0.12216591
     atom   26 type  2   force =    -2.34959841    4.37365053    0.26788037
     atom   27 type  2   force =     0.13321123   14.99011874    0.26838466
     atom   28 type  3   force =     0.60141656   -0.34722831    1.20569584
     atom   29 type  2   force =    13.04514033   -7.53161528    0.12167303
     atom   30 type  2   force =     2.55421059   -4.22879487    0.06884379
     atom   31 type  2   force =     1.21897107   -1.40643026    0.03230801
     atom   32 type  2   force =     0.38927684   -0.62421743    0.02578323
     atom   33 type  2   force =     0.10737838   -0.65496030    0.02580384
     atom   34 type  2   force =    -0.15869920   -0.03428696    0.03226998
     atom   35 type  2   force =    -0.58101158    0.50882146    0.06888162
     atom   36 type  2   force =    -1.27810032    0.73791156    0.12223192
     atom   37 type  2   force =    -3.26316249    1.88398774    0.26758055
     atom   38 type  2   force =    -4.96249167   -0.15201336    0.26788037
     atom   39 type  2   force =   -12.91521802   -7.61042368    0.26838466
     atom   40 type  2   force =    -2.47989778   -4.29462500    0.12197599
     atom   41 type  2   force =     0.03599690   -3.72080704    0.06874675
     atom   42 type  2   force =     0.00816891   -1.37844619    0.03227165
     atom   43 type  2   force =    -0.11414623   -0.68819961    0.02511248
     atom   44 type  2   force =     0.11723194   -0.06768390    0.01972953
     atom   45 type  2   force =    -0.03218963    0.01858469    0.02509419
     atom   46 type  2   force =    -0.04965623    0.15458102    0.03226998
     atom   47 type  2   force =    -0.73115810    0.24876005    0.06888162
     atom   48 type  2   force =    -0.84552334   -0.03926503    0.06887784
     atom   49 type  2   force =    -1.90795039   -0.40832579    0.12216591
     atom   50 type  2   force =    -1.21414917   -0.74250599    0.06886627
     atom   51 type  2   force =    -1.21349264   -1.47962628    0.06882998
     atom   52 type  2   force =    -0.39064515   -0.68079219    0.03227137
     The core correction contribution to forces
     atom    1 type  1   force =     0.00000000    0.00000000    0.00000000
     atom    2 type  1   force =     0.00000000    0.00000000    0.00000000
     atom    3 type  2   force =     0.00009930   -0.00005733    0.00000109
     atom    4 type  2   force =    -0.00035049   -0.00022760    0.00000064
     atom    5 type  2   force =    -0.00013846   -0.00007912    0.00000103
     atom    6 type  2   force =    -0.00019021   -0.00010970    0.00000025
     atom    7 type  2   force =    -0.00013818   -0.00008103    0.00000158
     atom    8 type  2   force =    -0.00037259   -0.00019017    0.00000078
     atom    9 type  2   force =     0.00000056    0.00011472    0.00000030
     atom   10 type  2   force =     0.00000011    0.00002726    0.00000072
     atom   11 type  2   force =     0.00016252    0.00009430    0.00000137
     atom   12 type  2   force =     0.00002381   -0.00001375    0.00000157
     atom   13 type  2   force =    -0.00000040   -0.00018790    0.00000137
     atom   14 type  2   force =    -0.00000077   -0.00020310    0.00000253
     atom   15 type  2   force =    -0.00022415   -0.00102294    0.00000119
     atom   16 type  2   force =    -0.00198674   -0.00143702   -0.00000101
     atom   17 type  2   force =     0.00008567    0.00004973   -0.00000051
     atom   18 type  2   force =    -0.00223469   -0.00099885    0.00000123
     atom   19 type  2   force =    -0.00099854    0.00031774    0.00000120
     atom   20 type  2   force =    -0.00017579    0.00010149   -0.00000041
     atom   21 type  2   force =    -0.00016267    0.00009392    0.00000036
     atom   22 type  2   force =    -0.00002355   -0.00001372    0.00000072
     atom   23 type  2   force =    -0.00009907   -0.00005785    0.00000030
     atom   24 type  2   force =     0.00035128   -0.00022817    0.00000266
     atom   25 type  2   force =     0.00022318   -0.00102627    0.00000255
     atom   26 type  2   force =     0.00197644   -0.00143923   -0.00000336
     atom   27 type  2   force =    -0.00000480    0.00982848    0.00001038
     atom   28 type  3   force =    -0.00000336    0.00000194   -0.00001164
     atom   29 type  2   force =     0.00850704   -0.00491154   -0.00000053
     atom   30 type  2   force =    -0.00025232    0.00243473    0.00000123
     atom   31 type  2   force =    -0.00077444    0.00070589    0.00000120
     atom   32 type  2   force =    -0.00002160    0.00041776    0.00000078
     atom   33 type  2   force =     0.00000109    0.00016018    0.00000158
     atom   34 type  2   force =     0.00021589    0.00012376    0.00000088
     atom   35 type  2   force =     0.00013970   -0.00008095    0.00000317
     atom   36 type  2   force =     0.00019547   -0.00011285    0.00000298
     atom   37 type  2   force =    -0.00008014    0.00004627   -0.00001557
     atom   38 type  2   force =     0.00223463   -0.00099203   -0.00000336
     atom   39 type  2   force =    -0.00851412   -0.00491008    0.00001038
     atom   40 type  2   force =     0.00025112    0.00243908   -0.00000101
     atom   41 type  2   force =    -0.00000023   -0.00009906   -0.00000051
     atom   42 type  2   force =    -0.00000010    0.00021958    0.00000025
[...]
     atom    8 type  2   force =     0.45089854    0.02741078   -0.36605325
     atom    9 type  2   force =    -0.15277817   -0.19518068   -0.85721614
     atom   10 type  2   force =    -0.10799697   -0.07896136   -0.86059620
     atom   11 type  2   force =    -0.41792509   -0.16533723   -1.20936057
     atom   12 type  2   force =    -0.06785212    0.03917444   -1.34498946
     atom   13 type  2   force =    -0.06577630    0.44460236   -1.20936057
     atom   14 type  2   force =     0.02804626    1.21106046   -0.32326034
     atom   15 type  2   force =     0.67211239    1.52814093    0.25779493
     atom   16 type  2   force =     2.84449852    2.93062130    3.13978220
     atom   17 type  2   force =     2.35931181    1.00684906    1.24443131
     atom   18 type  2   force =     3.48733047    0.11288287   -0.41573520
     atom   19 type  2   force =     1.33924594   -0.27295552   -0.06835181
     atom   20 type  2   force =     0.85460905   -0.49340877   -0.16184841
     atom   21 type  2   force =     0.18077445   -0.10437018   -0.65844848
     atom   22 type  2   force =     0.01438405    0.13300880   -0.86059620
     atom   23 type  2   force =     0.09264234    0.22990012   -0.85721614
     atom   24 type  2   force =    -0.45311602    0.61410811   -0.76767627
     atom   25 type  2   force =    -0.56652421    1.75883230    0.06880166
     atom   26 type  2   force =    -2.60188447    4.01085878    3.12696125
     atom   27 type  2   force =     1.57352222    8.49388395    9.53857017
     atom   28 type  3   force =     0.67192306   -0.38793527   -9.81915086
     atom   29 type  2   force =     7.02375605   -4.05516745   -3.78567066
     atom   30 type  2   force =     1.64590579   -3.07655821   -0.41573520
     atom   31 type  2   force =     0.90600939   -1.02334325   -0.06835181
     atom   32 type  2   force =     0.20171084   -0.40419498   -0.36605325
     atom   33 type  2   force =     0.15789905   -0.35987747   -0.75985437
     atom   34 type  2   force =    -0.16635488    0.00819080   -1.08095809
     atom   35 type  2   force =    -0.40623421    0.44967025   -0.62639802
     atom   36 type  2   force =    -1.13019092    0.65251603    0.04225492
     atom   37 type  2   force =    -3.02334707    1.74553025    2.56934076
     atom   38 type  2   force =    -4.77444783    0.24786865    3.12696125
     atom   39 type  2   force =    -6.56915817   -5.60965218    9.53857017
     atom   40 type  2   force =    -1.11574324   -3.92871863    3.13978220
     atom   41 type  2   force =     0.30769904   -2.54664850    1.24443131
     atom   42 type  2   force =     0.10878257   -1.03224211    0.00458108
     atom   43 type  2   force =    -0.10888369   -0.42496889   -0.63346027
     atom   44 type  2   force =     0.18387249   -0.10615884   -1.04978790
     atom   45 type  2   force =    -0.03735601    0.02156750   -0.89381107
     atom   46 type  2   force =    -0.09027088    0.13997215   -1.08095809
     atom   47 type  2   force =    -0.59254296    0.12697402   -0.62639802
     atom   48 type  2   force =    -0.75839123    0.08535592   -0.76767627
     atom   49 type  2   force =    -1.80645556   -0.38879179    0.06880166
     atom   50 type  2   force =    -1.03478599   -0.62981900   -0.32326034
     atom   51 type  2   force =    -0.98735267   -1.34613686    0.25779493
     atom   52 type  2   force =    -0.09687131   -0.57442179   -1.11111407
     The core correction contribution to forces
     atom    1 type  1   force =     0.00000000    0.00000000    0.00000000
     atom    2 type  1   force =     0.00000000    0.00000000    0.00000000
     atom    3 type  2   force =    -0.00056282    0.00032494   -0.00060540
     atom    4 type  2   force =     0.00001328   -0.00070541   -0.00038342
     atom    5 type  2   force =    -0.00117276    0.00032282   -0.00040080
     atom    6 type  2   force =     0.00016600    0.00006672   -0.00001911
     atom    7 type  2   force =    -0.00014568   -0.00075886   -0.00023155
     atom    8 type  2   force =    -0.00030526    0.00020139   -0.00022574
     atom    9 type  2   force =     0.00013067   -0.00036081   -0.00025926
     atom   10 type  2   force =     0.00012935    0.00056849   -0.00050102
     atom   11 type  2   force =    -0.00015351    0.00008453   -0.00061066
     atom   12 type  2   force =     0.00070828   -0.00040892   -0.00074839
     atom   13 type  2   force =    -0.00014996    0.00009068   -0.00061066
     atom   14 type  2   force =    -0.00012545   -0.00037922   -0.00023243
     atom   15 type  2   force =    -0.00009090   -0.00089258    0.00020043
     atom   16 type  2   force =    -0.00040123   -0.00070884    0.00124505
     atom   17 type  2   force =    -0.00103648    0.00005129    0.00076915
     atom   18 type  2   force =    -0.00001771    0.00036446   -0.00008336
     atom   19 type  2   force =    -0.00032406    0.00042619    0.00002679
     atom   20 type  2   force =     0.00021035   -0.00012144   -0.00011693
     atom   21 type  2   force =     0.00004012   -0.00002316   -0.00023089
     atom   22 type  2   force =    -0.00042766   -0.00039627   -0.00050102
     atom   23 type  2   force =     0.00037780    0.00006724   -0.00025926
     atom   24 type  2   force =     0.00007459   -0.00069935   -0.00031640
     atom   25 type  2   force =     0.00005798   -0.00103347    0.00017662
     atom   26 type  2   force =    -0.00029532   -0.00159135    0.00129407
     atom   27 type  2   force =    -0.00083380    0.00087560    0.00163441
     atom   28 type  3   force =     0.00074950   -0.00043272    0.00346467
     atom   29 type  2   force =     0.00086239   -0.00049790    0.00137564
     atom   30 type  2   force =    -0.00032448   -0.00016690   -0.00008336
     atom   31 type  2   force =    -0.00053112    0.00006755    0.00002679
     atom   32 type  2   force =    -0.00032704    0.00016367   -0.00022574
     atom   33 type  2   force =     0.00058435    0.00050559   -0.00023155
     atom   34 type  2   force =    -0.00023213   -0.00021119   -0.00049835
     atom   35 type  2   force =     0.00099413    0.00000868   -0.00027186
     atom   36 type  2   force =     0.00037697   -0.00021764   -0.00012069
     atom   37 type  2   force =     0.00172270   -0.00099460   -0.00058706
     atom   38 type  2   force =     0.00123049    0.00105143    0.00129407
     atom   39 type  2   force =    -0.00117519    0.00028429    0.00163441
     atom   40 type  2   force =     0.00041326    0.00070189    0.00124505
     atom   41 type  2   force =    -0.00056266    0.00087197    0.00076915
     atom   42 type  2   force =     0.00002521   -0.00017712   -0.00001911
     atom   43 type  2   force =    -0.00086595    0.00085423   -0.00040080
     atom   44 type  2   force =     0.00045711   -0.00026391   -0.00050878
     atom   45 type  2   force =    -0.00003548    0.00002049   -0.00053233
     atom   46 type  2   force =     0.00006683    0.00030662   -0.00049835
     atom   47 type  2   force =     0.00048955   -0.00086528   -0.00027186
     atom   48 type  2   force =     0.00064295    0.00028508   -0.00031640
     atom   49 type  2   force =     0.00092400    0.00046652    0.00017662
     atom   50 type  2   force =     0.00026569    0.00029825   -0.00023243
     atom   51 type  2   force =     0.00072754    0.00052501    0.00020043
     atom   52 type  2   force =     0.00061755    0.00034121   -0.00038342
     The Hubbard contrib.    to forces
     atom    1 type  1   force =     0.00000000    0.00000000    0.00000000
     atom    2 type  1   force =     0.00000000    0.00000000    0.00000000
     atom    3 type  2   force =     0.00000000    0.00000000    0.00000000
     atom    4 type  2   force =     0.00000000    0.00000000    0.00000000
     atom    5 type  2   force =     0.00000000    0.00000000    0.00000000
     atom    6 type  2   force =     0.00000000    0.00000000    0.00000000
     atom    7 type  2   force =     0.00000000    0.00000000    0.00000000
     atom    8 type  2   force =     0.00000000    0.00000000    0.00000000
     atom    9 type  2   force =     0.00000000    0.00000000    0.00000000
     atom   10 type  2   force =     0.00000000    0.00000000    0.00000000
     atom   11 type  2   force =     0.00000000    0.00000000    0.00000000
     atom   12 type  2   force =     0.00000000    0.00000000    0.00000000
     atom   13 type  2   force =     0.00000000    0.00000000    0.00000000
     atom   14 type  2   force =     0.00000000    0.00000000    0.00000000
     atom   15 type  2   force =     0.00000000    0.00000000    0.00000000
     atom   16 type  2   force =     0.00000000    0.00000000    0.00000000
     atom   17 type  2   force =     0.00000000    0.00000000    0.00000000
     atom   18 type  2   force =     0.00000000    0.00000000    0.00000000
     atom   19 type  2   force =     0.00000000    0.00000000    0.00000000
     atom   20 type  2   force =     0.00000000    0.00000000    0.00000000
     atom   21 type  2   force =     0.00000000    0.00000000    0.00000000
     atom   22 type  2   force =     0.00000000    0.00000000    0.00000000
     atom   23 type  2   force =     0.00000000    0.00000000    0.00000000
     atom   24 type  2   force =     0.00000000    0.00000000    0.00000000
     atom   25 type  2   force =     0.00000000    0.00000000    0.00000000
     atom   26 type  2   force =     0.00000000    0.00000000    0.00000000
     atom   27 type  2   force =     0.00000000    0.00000000    0.00000000
     atom   28 type  3   force =     0.00000000    0.00000000    0.00000000
     atom   29 type  2   force =     0.00000000    0.00000000    0.00000000
     atom   30 type  2   force =     0.00000000    0.00000000    0.00000000
     atom   31 type  2   force =     0.00000000    0.00000000    0.00000000
     atom   32 type  2   force =     0.00000000    0.00000000    0.00000000
     atom   33 type  2   force =     0.00000000    0.00000000    0.00000000
     atom   34 type  2   force =     0.00000000    0.00000000    0.00000000
     atom   35 type  2   force =     0.00000000    0.00000000    0.00000000
     atom   36 type  2   force =     0.00000000    0.00000000    0.00000000
     atom   37 type  2   force =     0.00000000    0.00000000    0.00000000
     atom   38 type  2   force =     0.00000000    0.00000000    0.00000000
     atom   39 type  2   force =     0.00000000    0.00000000    0.00000000
     atom   40 type  2   force =     0.00000000    0.00000000    0.00000000
     atom   41 type  2   force =     0.00000000    0.00000000    0.00000000
     atom   42 type  2   force =     0.00000000    0.00000000    0.00000000
     atom   43 type  2   force =     0.00000000    0.00000000    0.00000000
     atom   44 type  2   force =     0.00000000    0.00000000    0.00000000
     atom   45 type  2   force =     0.00000000    0.00000000    0.00000000
     atom   46 type  2   force =     0.00000000    0.00000000    0.00000000
     atom   47 type  2   force =     0.00000000    0.00000000    0.00000000
     atom   48 type  2   force =     0.00000000    0.00000000    0.00000000
     atom   49 type  2   force =     0.00000000    0.00000000    0.00000000
     atom   50 type  2   force =     0.00000000    0.00000000    0.00000000
     atom   51 type  2   force =     0.00000000    0.00000000    0.00000000
     atom   52 type  2   force =     0.00000000    0.00000000    0.00000000
     The SCF correction term to forces
     atom    1 type  1   force =    -0.00000001    0.00000001   -0.00000004
     atom    2 type  1   force =    -0.00000003    0.00000002   -0.00000003
     atom    3 type  2   force =    -0.00000099    0.00000057    0.00000033
     atom    4 type  2   force =    -0.00000007   -0.00000018    0.00000039
     atom    5 type  2   force =     0.00000073   -0.00000094    0.00000050
     atom    6 type  2   force =     0.00000088   -0.00000077    0.00000057
     atom    7 type  2   force =     0.00000082   -0.00000043    0.00000058
     atom    8 type  2   force =     0.00000070   -0.00000013    0.00000064
     atom    9 type  2   force =    -0.00000044    0.00000007    0.00000057
     atom   10 type  2   force =    -0.00000068    0.00000026    0.00000055
     atom   11 type  2   force =    -0.00000117    0.00000011    0.00000044
     atom   12 type  2   force =    -0.00000110    0.00000063    0.00000042
     atom   13 type  2   force =    -0.00000068    0.00000096    0.00000044
     atom   14 type  2   force =    -0.00000062    0.00000078    0.00000037
     atom   15 type  2   force =    -0.00000043   -0.00000022    0.00000046
     atom   16 type  2   force =    -0.00000000   -0.00000107    0.00000045
     atom   17 type  2   force =     0.00000011   -0.00000024    0.00000067
     atom   18 type  2   force =    -0.00000014   -0.00000034    0.00000074
     atom   19 type  2   force =     0.00000100   -0.00000089    0.00000075
     atom   20 type  2   force =     0.00000068   -0.00000039    0.00000075
     atom   21 type  2   force =    -0.00000036    0.00000021    0.00000065
     atom   22 type  2   force =    -0.00000057    0.00000046    0.00000055
     atom   23 type  2   force =    -0.00000028    0.00000034    0.00000057
     atom   24 type  2   force =    -0.00000116    0.00000051    0.00000043
     atom   25 type  2   force =    -0.00000090    0.00000027    0.00000037
     atom   26 type  2   force =    -0.00000068   -0.00000107    0.00000024
     atom   27 type  2   force =    -0.00000054   -0.00000251   -0.00000036
     atom   28 type  3   force =     0.00000472   -0.00000273    0.00000767
     atom   29 type  2   force =    -0.00000188    0.00000108    0.00000066
     atom   30 type  2   force =     0.00000022    0.00000029    0.00000074
     atom   31 type  2   force =     0.00000127   -0.00000042    0.00000075
     atom   32 type  2   force =     0.00000046   -0.00000054    0.00000064
     atom   33 type  2   force =     0.00000078   -0.00000049    0.00000058
     atom   34 type  2   force =     0.00000075   -0.00000037    0.00000058
     atom   35 type  2   force =    -0.00000062   -0.00000004    0.00000049
     atom   36 type  2   force =    -0.00000079    0.00000046    0.00000037
     atom   37 type  2   force =    -0.00000019    0.00000011    0.00000025
     atom   38 type  2   force =     0.00000059    0.00000112    0.00000024
     atom   39 type  2   force =     0.00000190    0.00000172   -0.00000036
     atom   40 type  2   force =     0.00000093    0.00000054    0.00000045
     atom   41 type  2   force =     0.00000026    0.00000003    0.00000067
     atom   42 type  2   force =     0.00000111   -0.00000037    0.00000057
     atom   43 type  2   force =     0.00000117   -0.00000016    0.00000050
     atom   44 type  2   force =     0.00000110   -0.00000063    0.00000048
     atom   45 type  2   force =     0.00000122   -0.00000071    0.00000054
     atom   46 type  2   force =     0.00000070   -0.00000047    0.00000058
     atom   47 type  2   force =    -0.00000027    0.00000056    0.00000049
     atom   48 type  2   force =    -0.00000102    0.00000075    0.00000043
     atom   49 type  2   force =    -0.00000069    0.00000065    0.00000037
     atom   50 type  2   force =    -0.00000098    0.00000015    0.00000037
     atom   51 type  2   force =    -0.00000003    0.00000049    0.00000046
     atom   52 type  2   force =     0.00000012    0.00000015    0.00000039

     Total force =     0.206050     Total SCF correction =     0.000013

     number of scf cycles    =  45
     number of bfgs steps    =  43

     energy   old            =    -950.3472101726 Ry
     energy   new            =    -950.3493338755 Ry

     CASE: energy  _new < energy  _old


     WARNING: info=150 for Hessian
     new trust radius        =       0.0541547709 bohr
     new conv_thr            =       0.0000000002 Ry


ATOMIC_POSITIONS (angstrom)
H        3.566752046   5.057435190   5.017355559
H        4.186911290   4.699386083   4.797811102
C       -0.012958191   0.007481415   0.116559109
C       -0.038055160   1.420900287   0.036028071
C       -1.270674099   2.148207484   0.030018679
C       -1.257820122   3.562694325  -0.047957788
C       -2.484945805   4.264558047   0.038538139
C       -2.486374461   5.695404913   0.025188671
C       -3.705186890   6.420358323   0.055452943
C       -3.706839773   7.848842915   0.089992356
C       -4.943484632   8.549738472   0.088802106
C       -4.937001423   9.967079544   0.125090944
C        2.450453722   0.006314038   0.088802106
C        2.445322308   1.413404638  -0.071802968
C        1.204721205   2.091291949  -0.145304567
C        1.157445928   3.501143571  -0.390712759
C       -0.034275643   4.259447688  -0.190486878
C       -0.032301082   5.675911772  -0.034949840
C       -1.256591211   6.417463384  -0.002897986
C       -1.240000901   7.832615297   0.023640253
C       -2.468183037   8.541706584   0.082742838
C       -2.487473866   9.960846620   0.089992356
C        4.913699896  -0.001393189   0.055452943
C        4.928050377   1.415512571  -0.017387348
C        3.684960080   2.096143455  -0.165464096
C        3.719936974   3.499178781  -0.443990499
C        2.426380729   4.033547100  -0.656345565
Ni       2.621909831   5.602940097  -0.091723725
C        1.136060011   6.460795890   0.098624750
C        1.231609050   7.865068337  -0.034949840
C       -0.022738549   8.554558884  -0.002897986
C       -0.012309195   9.980611655   0.025188671
C        7.390798244   0.019747171   0.038538139
C        7.369312553   1.432629694   0.078166086
C        6.156793037   2.150574792  -0.010234892
C        6.148884266   3.566640458  -0.131071905
C        4.941443662   4.263756615  -0.403681329
C        4.992834145   5.703901355  -0.443990499
C        3.883279483   6.556969764  -0.656345565
C        3.709887065   7.922101303  -0.390712759
C        2.457315650   8.575010399  -0.190486878
C        2.448949523   9.983007682  -0.047957788
C        9.830747446   0.026332308   0.030018679
C        9.840750403   1.435140549   0.090242036
C        8.604530303   2.148872557   0.097178655
C        8.607205943   3.576723939   0.078166086
C        7.379187491   4.267824093  -0.010234892
C        7.401398718   5.699477562  -0.017387348
C        6.190409933   6.435709896  -0.165464096
C        6.161860207   7.850637108  -0.071802968
C        4.954492023   8.586085523  -0.145304567
C        4.913680050   9.997557257   0.036028071



     Writing output data file niquel-sixhollow-2.8.save/
     NEW-OLD atomic charge density approx. for the potential

     Check: negative core charge=   -0.000002

     negative rho (up, down):  1.034E-03 0.000E+00

     total cpu time spent up to now is   141139.4 secs

     Self-consistent Calculation

     iteration #  1     ecut=    70.00 Ry     beta= 0.70
     Davidson diagonalization with overlap
     ethr =  1.00E-06,  avg # of iterations =  6.0

     negative rho (up, down):  1.030E-03 1.943E-05

     total cpu time spent up to now is   141349.5 secs

     total energy              =    -950.34308306 Ry
     Harris-Foulkes estimate   =    -950.35143668 Ry
     estimated scf accuracy    <       0.02603714 Ry

     total magnetization       =    -0.00 Bohr mag/cell
     absolute magnetization    =     0.00 Bohr mag/cell

     iteration #  2     ecut=    70.00 Ry     beta= 0.70
     Davidson diagonalization with overlap
     ethr =  1.21E-05,  avg # of iterations =  3.0

     negative rho (up, down):  4.954E-02 1.157E-03

     total cpu time spent up to now is   141469.5 secs

     total energy              =    -950.29475490 Ry
     Harris-Foulkes estimate   =    -950.40196367 Ry
     estimated scf accuracy    <       2.56183039 Ry

     total magnetization       =     0.00 Bohr mag/cell
     absolute magnetization    =     0.02 Bohr mag/cell

     iteration #  3     ecut=    70.00 Ry     beta= 0.70
     Davidson diagonalization with overlap
     ethr =  1.21E-05,  avg # of iterations =  5.0
