
     Program PWSCF v.6.4.1 starts on  9Mar2022 at 17: 8:19 

     This program is part of the open-source Quantum ESPRESSO suite
     for quantum simulation of materials; please cite
         "P. Giannozzi et al., J. Phys.:Condens. Matter 21 395502 (2009);
         "P. Giannozzi et al., J. Phys.:Condens. Matter 29 465901 (2017);
          URL http://www.quantum-espresso.org", 
     in publications or presentations arising from this work. More details at
     http://www.quantum-espresso.org/quote

     Parallel version (MPI), running on     6 processors

     MPI processes distributed on     1 nodes
     R & G space division:  proc/nbgrp/npool/nimage =       6
     Reading input from cr-15.in

     Current dimensions of program PWSCF are:
     Max number of different atomic species (ntypx) = 10
     Max number of k-points (npk) =  40000
     Max angular momentum in pseudopotentials (lmaxx) =  3
               file Cr.pbe-spn-rrkjus_psl.1.0.0.UPF: wavefunction(s)  3P renormalized
               file Cr.pbe-spn-rrkjus_psl.1.0.0.UPF: wavefunction(s)  3P renormalized

     Subspace diagonalization in iterative solution of the eigenvalue problem:
     a serial algorithm will be used

     Message from routine setup:
     DEPRECATED: symmetry with ibrav=0, use correct ibrav instead

     Parallelization info
     --------------------
     sticks:   dense  smooth     PW     G-vecs:    dense   smooth      PW
     Min          23      23      9                  218      218      50
     Max          26      26     11                  219      219      51
     Sum         145     145     57                 1309     1309     305



     bravais-lattice index     =            0
     lattice parameter (alat)  =       5.4991  a.u.
     unit-cell volume          =     166.2936 (a.u.)^3
     number of atoms/cell      =            2
     number of atomic types    =            2
     number of electrons       =        28.00
     number of Kohn-Sham states=           18
     kinetic-energy cutoff     =      15.0000  Ry
     charge density cutoff     =      60.0000  Ry
     convergence threshold     =      1.0E-06
     mixing beta               =       0.7000
     number of iterations used =            8  plain     mixing
     Exchange-correlation      = PBE ( 1  4  3  4 0 0)

     celldm(1)=   5.499103  celldm(2)=   0.000000  celldm(3)=   0.000000
     celldm(4)=   0.000000  celldm(5)=   0.000000  celldm(6)=   0.000000

     crystal axes: (cart. coord. in units of alat)
               a(1) = (   1.000000   0.000000   0.000000 )  
               a(2) = (   0.000000   1.000000   0.000000 )  
               a(3) = (   0.000000   0.000000   1.000000 )  

     reciprocal axes: (cart. coord. in units 2 pi/alat)
               b(1) = (  1.000000  0.000000  0.000000 )  
               b(2) = (  0.000000  1.000000  0.000000 )  
               b(3) = (  0.000000  0.000000  1.000000 )  


     PseudoPot. # 1 for Cr read from file:
     /home/cristian/Escritorio/Proyecto_Grafeno/pseudopotenciales/Cr.pbe-spn-rrkjus_psl.1.0.0.UPF
     MD5 check sum: 793d051e4f89dd1e3290b85340a92c0a
     Pseudo is Ultrasoft + core correction, Zval = 14.0
     Generated using "atomic" code by A. Dal Corso v.6.2.2
     Using radial grid of 1183 points,  6 beta functions with: 
                l(1) =   0
                l(2) =   0
                l(3) =   1
                l(4) =   1
                l(5) =   2
                l(6) =   2
     Q(r) pseudized with 0 coefficients 


     PseudoPot. # 2 for Cr read from file:
     /home/cristian/Escritorio/Proyecto_Grafeno/pseudopotenciales/Cr.pbe-spn-rrkjus_psl.1.0.0.UPF
     MD5 check sum: 793d051e4f89dd1e3290b85340a92c0a
     Pseudo is Ultrasoft + core correction, Zval = 14.0
     Generated using "atomic" code by A. Dal Corso v.6.2.2
     Using radial grid of 1183 points,  6 beta functions with: 
                l(1) =   0
                l(2) =   0
                l(3) =   1
                l(4) =   1
                l(5) =   2
                l(6) =   2
     Q(r) pseudized with 0 coefficients 


     atomic species   valence    mass     pseudopotential
        Cr1           14.00    51.99610     Cr( 1.00)
        Cr2           14.00    51.99610     Cr( 1.00)

     Starting magnetic structure 
     atomic species   magnetization
        Cr1          0.100
        Cr2         -0.100

     48 Sym. Ops., with inversion, found



   Cartesian axes

     site n.     atom                  positions (alat units)
         1           Cr1 tau(   1) = (   0.0000000   0.0000000   0.0000000  )
         2           Cr2 tau(   2) = (   0.5000000   0.5000000   0.5000000  )

     number of k points=    20  Methfessel-Paxton smearing, width (Ry)=  0.0200
                       cart. coord. in units 2pi/alat
        k(    1) = (   0.0625000   0.0625000   0.0625000), wk =   0.0156250
        k(    2) = (   0.0625000   0.0625000   0.1875000), wk =   0.0468750
        k(    3) = (   0.0625000   0.0625000   0.3125000), wk =   0.0468750
        k(    4) = (   0.0625000   0.0625000   0.4375000), wk =   0.0468750
        k(    5) = (   0.0625000   0.1875000   0.1875000), wk =   0.0468750
        k(    6) = (   0.0625000   0.1875000   0.3125000), wk =   0.0937500
        k(    7) = (   0.0625000   0.1875000   0.4375000), wk =   0.0937500
        k(    8) = (   0.0625000   0.3125000   0.3125000), wk =   0.0468750
        k(    9) = (   0.0625000   0.3125000   0.4375000), wk =   0.0937500
        k(   10) = (   0.0625000   0.4375000   0.4375000), wk =   0.0468750
        k(   11) = (   0.1875000   0.1875000   0.1875000), wk =   0.0156250
        k(   12) = (   0.1875000   0.1875000   0.3125000), wk =   0.0468750
        k(   13) = (   0.1875000   0.1875000   0.4375000), wk =   0.0468750
        k(   14) = (   0.1875000   0.3125000   0.3125000), wk =   0.0468750
        k(   15) = (   0.1875000   0.3125000   0.4375000), wk =   0.0937500
        k(   16) = (   0.1875000   0.4375000   0.4375000), wk =   0.0468750
        k(   17) = (   0.3125000   0.3125000   0.3125000), wk =   0.0156250
        k(   18) = (   0.3125000   0.3125000   0.4375000), wk =   0.0468750
        k(   19) = (   0.3125000   0.4375000   0.4375000), wk =   0.0468750
        k(   20) = (   0.4375000   0.4375000   0.4375000), wk =   0.0156250

     Dense  grid:     1309 G-vectors     FFT dimensions: (  15,  15,  15)

     Estimated max dynamical RAM per process >       2.27 MB

     Estimated total dynamical RAM >      13.65 MB
     Generating pointlists ...
     new r_m :   0.3572 (alat units)  1.9645 (a.u.) for type    1
     new r_m :   0.3572 (alat units)  1.9645 (a.u.) for type    2

     Check: negative core charge=   -0.004634

     Initial potential from superposition of free atoms

     starting charge   27.99845, renormalised to   28.00000

     negative rho (up, down):  1.559E-02 0.000E+00
     Starting wfcs are   20 randomized atomic wfcs

     total cpu time spent up to now is        1.5 secs

     Self-consistent Calculation

     iteration #  1     ecut=    15.00 Ry     beta= 0.70
     Davidson diagonalization with overlap
     ethr =  1.00E-02,  avg # of iterations =  2.9

     total cpu time spent up to now is        1.7 secs

     total energy              =    -326.19932066 Ry
     Harris-Foulkes estimate   =    -332.12442195 Ry
     estimated scf accuracy    <      10.84170619 Ry

     total magnetization       =     0.00 Bohr mag/cell
     absolute magnetization    =     0.61 Bohr mag/cell

     iteration #  2     ecut=    15.00 Ry     beta= 0.70
     Davidson diagonalization with overlap
     ethr =  1.00E-02,  avg # of iterations =  3.0

     total cpu time spent up to now is        2.0 secs

     total energy              =    -328.20649352 Ry
     Harris-Foulkes estimate   =    -328.94604280 Ry
     estimated scf accuracy    <       1.40050548 Ry

     total magnetization       =    -0.00 Bohr mag/cell
     absolute magnetization    =     0.74 Bohr mag/cell

     iteration #  3     ecut=    15.00 Ry     beta= 0.70
     Davidson diagonalization with overlap
     ethr =  5.00E-03,  avg # of iterations =  2.0

     total cpu time spent up to now is        2.2 secs

     total energy              =    -328.43884213 Ry
     Harris-Foulkes estimate   =    -328.51730113 Ry
     estimated scf accuracy    <       0.12199398 Ry

     total magnetization       =     0.06 Bohr mag/cell
     absolute magnetization    =     0.57 Bohr mag/cell

     iteration #  4     ecut=    15.00 Ry     beta= 0.70
     Davidson diagonalization with overlap
     ethr =  4.36E-04,  avg # of iterations =  3.1

     total cpu time spent up to now is        2.4 secs

     total energy              =    -328.32524191 Ry
     Harris-Foulkes estimate   =    -328.62361571 Ry
     estimated scf accuracy    <       1.77973636 Ry

     total magnetization       =    -0.04 Bohr mag/cell
     absolute magnetization    =     0.54 Bohr mag/cell

     iteration #  5     ecut=    15.00 Ry     beta= 0.70
     Davidson diagonalization with overlap
     ethr =  4.36E-04,  avg # of iterations =  3.0

     total cpu time spent up to now is        2.6 secs

     total energy              =    -328.47678601 Ry
     Harris-Foulkes estimate   =    -328.47700422 Ry
     estimated scf accuracy    <       0.00148316 Ry

     total magnetization       =     0.04 Bohr mag/cell
     absolute magnetization    =     0.41 Bohr mag/cell

     iteration #  6     ecut=    15.00 Ry     beta= 0.70
     Davidson diagonalization with overlap
     ethr =  5.30E-06,  avg # of iterations =  2.2

     total cpu time spent up to now is        2.7 secs

     total energy              =    -328.47722468 Ry
     Harris-Foulkes estimate   =    -328.47703946 Ry
     estimated scf accuracy    <       0.00017176 Ry

     total magnetization       =     0.03 Bohr mag/cell
     absolute magnetization    =     0.34 Bohr mag/cell

     iteration #  7     ecut=    15.00 Ry     beta= 0.70
     Davidson diagonalization with overlap
     ethr =  6.13E-07,  avg # of iterations =  3.1

     total cpu time spent up to now is        2.9 secs

     total energy              =    -328.47724655 Ry
     Harris-Foulkes estimate   =    -328.47747774 Ry
     estimated scf accuracy    <       0.00005499 Ry

     total magnetization       =     0.02 Bohr mag/cell
     absolute magnetization    =     0.21 Bohr mag/cell

     iteration #  8     ecut=    15.00 Ry     beta= 0.70
     Davidson diagonalization with overlap
     ethr =  1.96E-07,  avg # of iterations =  3.6

     total cpu time spent up to now is        3.2 secs

     total energy              =    -328.47773606 Ry
     Harris-Foulkes estimate   =    -328.47775456 Ry
     estimated scf accuracy    <       0.00004638 Ry

     total magnetization       =     0.01 Bohr mag/cell
     absolute magnetization    =     0.04 Bohr mag/cell

     iteration #  9     ecut=    15.00 Ry     beta= 0.70
     Davidson diagonalization with overlap
     ethr =  1.66E-07,  avg # of iterations =  2.3

     total cpu time spent up to now is        3.3 secs

     total energy              =    -328.47774601 Ry
     Harris-Foulkes estimate   =    -328.47774824 Ry
     estimated scf accuracy    <       0.00000102 Ry

     total magnetization       =     0.01 Bohr mag/cell
     absolute magnetization    =     0.02 Bohr mag/cell

     iteration # 10     ecut=    15.00 Ry     beta= 0.70
     Davidson diagonalization with overlap
     ethr =  3.65E-09,  avg # of iterations =  3.3

     Magnetic moment per site:
     atom:    1    charge:   12.3436    magn:    0.0027    constr:    0.0000
     atom:    2    charge:   12.3359    magn:    0.0014    constr:    0.0000

     total cpu time spent up to now is        3.6 secs

     End of self-consistent calculation

 ------ SPIN UP ------------


          k = 0.0625 0.0625 0.0625 (   169 PWs)   bands (ev):

   -72.5649 -72.4624 -25.5069 -25.5069 -23.4396 -22.7724 -21.7460 -21.7460
    12.3939  14.8986  14.8986  19.1815  19.1815  21.1450  21.2831  21.2831
    21.8485  21.8485

          k = 0.0625 0.0625 0.1875 (   166 PWs)   bands (ev):

   -72.5854 -72.3244 -24.1070 -23.6934 -23.0865 -23.0309 -22.0157 -21.6433
    13.0088  15.8060  16.8703  18.8529  19.4176  20.5247  21.0279  21.3127
    21.8586  22.4324

          k = 0.0625 0.0625 0.3125 (   169 PWs)   bands (ev):

   -72.5823 -72.4221 -25.7325 -25.2039 -24.8071 -22.8428 -22.8049 -19.3306
    14.3184  15.5638  16.6560  18.3206  18.3453  18.5656  20.5668  20.9162
    21.5911  21.7063

          k = 0.0625 0.0625 0.4375 (   168 PWs)   bands (ev):

   -72.4905 -72.4374 -24.1791 -24.1005 -23.4643 -23.3928 -22.9456 -21.1936
    15.4362  16.6736  17.1240  17.4855  18.7909  19.0251  19.6115  19.8884
    21.6803  22.1764

          k = 0.0625 0.1875 0.1875 (   164 PWs)   bands (ev):

   -72.4532 -72.3748 -24.5896 -23.3802 -22.7089 -22.3833 -21.2414 -21.1435
    13.7460  15.9987  17.9231  19.4148  19.6517  20.7000  21.1632  21.3284
    21.4342  22.0714

          k = 0.0625 0.1875 0.3125 (   162 PWs)   bands (ev):

   -72.3984 -72.3405 -23.9051 -22.8939 -22.7725 -22.5565 -21.7832 -19.3261
    14.8138  17.0143  18.1922  18.9844  19.2159  20.4107  20.6316  21.1698
    22.1748  22.8342

          k = 0.0625 0.1875 0.4375 (   168 PWs)   bands (ev):

   -72.5025 -72.4276 -25.0662 -24.6464 -23.7157 -23.5759 -21.3411 -21.0850
    15.2693  16.1991  17.6894  17.7098  19.3878  19.4266  20.1675  20.7046
    21.2822  22.1830

          k = 0.0625 0.3125 0.3125 (   163 PWs)   bands (ev):

   -72.4319 -72.3392 -24.3533 -23.4447 -22.3696 -22.2787 -21.8108 -19.9871
    14.9527  17.0418  18.9281  19.5501  19.6537  20.3665  21.1157  21.4019
    21.4651  22.4624

          k = 0.0625 0.3125 0.4375 (   162 PWs)   bands (ev):

   -72.4209 -72.3586 -24.3213 -24.0387 -23.2777 -22.1083 -20.6928 -19.4357
    15.6380  16.3792  18.9586  19.9506  20.0114  20.3936  20.9750  21.1755
    21.8593  22.7325

          k = 0.0625 0.4375 0.4375 (   160 PWs)   bands (ev):

   -72.4216 -72.3684 -24.0295 -24.0176 -23.2973 -23.2348 -19.2732 -19.2098
    16.1700  16.3726  19.6793  19.7084  19.7254  19.7368  22.2946  22.3575
    22.6226  22.9244

          k = 0.1875 0.1875 0.1875 (   166 PWs)   bands (ev):

   -72.5670 -72.3263 -25.1881 -24.9307 -24.9307 -21.4951 -21.4951 -19.1795
    14.6049  16.6192  16.6192  18.1248  19.9193  19.9193  20.5420  20.5420
    22.1240  22.1240

          k = 0.1875 0.1875 0.3125 (   164 PWs)   bands (ev):

   -72.5046 -72.3298 -24.8315 -24.3909 -22.9492 -22.1592 -21.8729 -19.3859
    15.2559  17.0653  17.6014  19.1680  19.5914  19.6061  20.3655  20.5544
    21.4488  22.2963

          k = 0.1875 0.1875 0.4375 (   166 PWs)   bands (ev):

   -72.5380 -72.3665 -25.4364 -25.0399 -23.1784 -22.6369 -21.7112 -19.8277
    16.1266  16.5643  17.0415  18.1593  19.2561  19.6259  20.5174  20.9793
    21.5557  23.3586

          k = 0.1875 0.3125 0.3125 (   167 PWs)   bands (ev):

   -72.5093 -72.4576 -24.8329 -24.4810 -23.8382 -22.6154 -22.1593 -21.2721
    15.4733  17.2491  18.6454  18.8456  19.1870  19.2784  19.7997  20.5273
    21.4380  22.1609

          k = 0.1875 0.3125 0.4375 (   163 PWs)   bands (ev):

   -72.4654 -72.4102 -24.7165 -24.2461 -23.3327 -22.5439 -20.8363 -19.9433
    16.1717  17.0591  18.1989  18.5767  19.5306  19.5377  20.7864  21.6878
    22.6011  23.2281

          k = 0.1875 0.4375 0.4375 (   158 PWs)   bands (ev):

   -72.4174 -72.3408 -23.7948 -23.2867 -23.1853 -21.9667 -20.0801 -18.8396
    16.7105  16.7946  18.9937  19.0564  19.0890  19.6594  22.2870  22.7157
    23.5249  25.1731

          k = 0.3125 0.3125 0.3125 (   160 PWs)   bands (ev):

   -72.4897 -72.2958 -23.7671 -23.7671 -23.3754 -22.0970 -19.8442 -19.8442
    16.5406  18.3947  18.3947  18.7994  19.3645  19.3645  20.6760  20.6760
    23.2562  24.9903

          k = 0.3125 0.3125 0.4375 (   162 PWs)   bands (ev):

   -72.4739 -72.3986 -24.9764 -23.4853 -22.9269 -22.7978 -20.4787 -20.3758
    17.0434  17.5375  17.9368  18.4312  18.6915  18.8489  22.3854  22.5638
    23.5519  24.1146

          k = 0.3125 0.4375 0.4375 (   160 PWs)   bands (ev):

   -72.4789 -72.3566 -24.3507 -22.6794 -22.5518 -22.4700 -21.5198 -19.6632
    17.1267  17.7869  18.0024  18.1302  18.6014  18.9471  22.3436  23.6079
    24.6579  25.2459

          k = 0.4375 0.4375 0.4375 (   160 PWs)   bands (ev):

   -72.4808 -72.4286 -22.6018 -22.4584 -22.4584 -22.2409 -22.2409 -22.1955
    17.7572  17.9287  18.0068  18.0068  18.1313  18.1313  24.9531  24.9531
    25.0087  25.0087

 ------ SPIN DOWN ----------


          k = 0.0625 0.0625 0.0625 (   169 PWs)   bands (ev):

   -72.5627 -72.4608 -25.5044 -25.5044 -23.4370 -22.7700 -21.7436 -21.7436
    12.3949  14.9003  14.9003  19.1838  19.1838  21.1491  21.2872  21.2872
    21.8528  21.8528

          k = 0.0625 0.0625 0.1875 (   166 PWs)   bands (ev):

   -72.5834 -72.3227 -24.1045 -23.6908 -23.0840 -23.0285 -22.0133 -21.6409
    13.0098  15.8078  16.8717  18.8552  19.4199  20.5288  21.0321  21.3168
    21.8626  22.4365

          k = 0.0625 0.0625 0.3125 (   169 PWs)   bands (ev):

   -72.5802 -72.4204 -25.7299 -25.2013 -24.8046 -22.8403 -22.8024 -19.3283
    14.3194  15.5656  16.6575  18.3228  18.3491  18.5695  20.5707  20.9201
    21.5951  21.7107

          k = 0.0625 0.0625 0.4375 (   168 PWs)   bands (ev):

   -72.4879 -72.4362 -24.1761 -24.0984 -23.4611 -23.3910 -22.9431 -21.1912
    15.4374  16.6752  17.1262  17.4874  18.7945  19.0286  19.6152  19.8921
    21.6845  22.1807

          k = 0.0625 0.1875 0.1875 (   164 PWs)   bands (ev):

   -72.4509 -72.3733 -24.5870 -23.3777 -22.7065 -22.3808 -21.2390 -21.1412
    13.7471  16.0004  17.9245  19.4185  19.6539  20.7025  21.1672  21.3324
    21.4378  22.0754

          k = 0.0625 0.1875 0.3125 (   162 PWs)   bands (ev):

   -72.3959 -72.3392 -23.9026 -22.8914 -22.7698 -22.5542 -21.7808 -19.3237
    14.8149  17.0159  18.1941  18.9875  19.2180  20.4145  20.6355  21.1735
    22.1790  22.8383

          k = 0.0625 0.1875 0.4375 (   168 PWs)   bands (ev):

   -72.5001 -72.4262 -25.0636 -24.6439 -23.7129 -23.5737 -21.3387 -21.0827
    15.2710  16.2011  17.6914  17.7117  19.3914  19.4304  20.1710  20.7078
    21.2862  22.1869

          k = 0.0625 0.3125 0.3125 (   163 PWs)   bands (ev):

   -72.4296 -72.3377 -24.3508 -23.4422 -22.3669 -22.2763 -21.8085 -19.9847
    14.9544  17.0439  18.9295  19.5538  19.6558  20.3702  21.1190  21.4050
    21.4690  22.4663

          k = 0.0625 0.3125 0.4375 (   162 PWs)   bands (ev):

   -72.4184 -72.3573 -24.3188 -24.0362 -23.2752 -22.1058 -20.6904 -19.4333
    15.6400  16.3813  18.9620  19.9535  20.0135  20.3961  20.9784  21.1792
    21.8622  22.7361

          k = 0.0625 0.4375 0.4375 (   160 PWs)   bands (ev):

   -72.4191 -72.3671 -24.0271 -24.0152 -23.2940 -23.2330 -19.2709 -19.2075
    16.1721  16.3747  19.6824  19.7119  19.7293  19.7402  22.2969  22.3604
    22.6244  22.9267

          k = 0.1875 0.1875 0.1875 (   166 PWs)   bands (ev):

   -72.5649 -72.3246 -25.1855 -24.9282 -24.9282 -21.4927 -21.4927 -19.1771
    14.6060  16.6209  16.6209  18.1286  19.9231  19.9231  20.5459  20.5459
    22.1261  22.1261

          k = 0.1875 0.1875 0.3125 (   164 PWs)   bands (ev):

   -72.5025 -72.3281 -24.8290 -24.3884 -22.9467 -22.1568 -21.8705 -19.3835
    15.2572  17.0672  17.6031  19.1716  19.5949  19.6091  20.3690  20.5580
    21.4519  22.2999

          k = 0.1875 0.1875 0.4375 (   166 PWs)   bands (ev):

   -72.5359 -72.3648 -25.4339 -25.0373 -23.1759 -22.6345 -21.7087 -19.8254
    16.1283  16.5670  17.0436  18.1620  19.2591  19.6296  20.5208  20.9823
    21.5588  23.3620

          k = 0.1875 0.3125 0.3125 (   167 PWs)   bands (ev):

   -72.5068 -72.4563 -24.8303 -24.4784 -23.8357 -22.6129 -22.1569 -21.2698
    15.4751  17.2513  18.6485  18.8476  19.1906  19.2820  19.8029  20.5306
    21.4408  22.1643

          k = 0.1875 0.3125 0.4375 (   163 PWs)   bands (ev):

   -72.4628 -72.4089 -24.7140 -24.2436 -23.3302 -22.5415 -20.8339 -19.9409
    16.1738  17.0614  18.2019  18.5793  19.5335  19.5418  20.7892  21.6908
    22.6038  23.2311

          k = 0.1875 0.4375 0.4375 (   158 PWs)   bands (ev):

   -72.4150 -72.3393 -23.7923 -23.2843 -23.1829 -21.9642 -20.0777 -18.8373
    16.7127  16.7971  18.9965  19.0590  19.0927  19.6629  22.2898  22.7187
    23.5272  25.1756

          k = 0.3125 0.3125 0.3125 (   160 PWs)   bands (ev):

   -72.4877 -72.2940 -23.7646 -23.7646 -23.3729 -22.0946 -19.8418 -19.8418
    16.5426  18.3974  18.3974  18.8027  19.3678  19.3678  20.6786  20.6786
    23.2592  24.9928

          k = 0.3125 0.3125 0.4375 (   162 PWs)   bands (ev):

   -72.4715 -72.3971 -24.9739 -23.4828 -22.9240 -22.7958 -20.4763 -20.3735
    17.0458  17.5407  17.9393  18.4340  18.6948  18.8523  22.3881  22.5664
    23.5546  24.1174

          k = 0.3125 0.4375 0.4375 (   160 PWs)   bands (ev):

   -72.4767 -72.3550 -24.3482 -22.6767 -22.5497 -22.4675 -21.5175 -19.6608
    17.1293  17.7896  18.0054  18.1336  18.6041  18.9504  22.3464  23.6106
    24.6605  25.2485

          k = 0.4375 0.4375 0.4375 (   160 PWs)   bands (ev):

   -72.4782 -72.4274 -22.5993 -22.4557 -22.4557 -22.2387 -22.2387 -22.1932
    17.7605  17.9314  18.0101  18.0101  18.1343  18.1343  24.9554  24.9554
    25.0115  25.0115

     the Fermi energy is    20.3509 ev

!    total energy              =    -328.47775002 Ry
     Harris-Foulkes estimate   =    -328.47775024 Ry
     estimated scf accuracy    <       0.00000035 Ry

     The total energy is the sum of the following terms:

     one-electron contribution =     -78.97400875 Ry
     hartree contribution      =      50.88583978 Ry
     xc contribution           =     -40.96919669 Ry
     ewald contribution        =    -259.42040010 Ry
     smearing contrib. (-TS)   =       0.00001574 Ry

     total magnetization       =     0.00 Bohr mag/cell
     absolute magnetization    =     0.00 Bohr mag/cell

     convergence has been achieved in  10 iterations

     Writing output data file cr-15.save/

     init_run     :      0.11s CPU      0.12s WALL (       1 calls)
     electrons    :      1.98s CPU      2.05s WALL (       1 calls)

     Called by init_run:
     wfcinit      :      0.04s CPU      0.05s WALL (       1 calls)
     potinit      :      0.00s CPU      0.00s WALL (       1 calls)
     hinit0       :      0.06s CPU      0.06s WALL (       1 calls)

     Called by electrons:
     c_bands      :      1.79s CPU      1.84s WALL (      10 calls)
     sum_band     :      0.17s CPU      0.19s WALL (      10 calls)
     v_of_rho     :      0.01s CPU      0.01s WALL (      11 calls)
     newd         :      0.01s CPU      0.01s WALL (      11 calls)
     mix_rho      :      0.00s CPU      0.00s WALL (      10 calls)

     Called by c_bands:
     init_us_2    :      0.01s CPU      0.01s WALL (     840 calls)
     cegterg      :      1.75s CPU      1.80s WALL (     400 calls)

     Called by sum_band:
     sum_band:bec :      0.01s CPU      0.01s WALL (     400 calls)
     addusdens    :      0.01s CPU      0.02s WALL (      10 calls)

     Called by *egterg:
     h_psi        :      0.67s CPU      0.70s WALL (    1581 calls)
     s_psi        :      0.05s CPU      0.06s WALL (    1581 calls)
     g_psi        :      0.00s CPU      0.00s WALL (    1141 calls)
     cdiaghg      :      0.81s CPU      0.84s WALL (    1541 calls)

     Called by h_psi:
     h_psi:pot    :      0.67s CPU      0.69s WALL (    1581 calls)
     h_psi:calbec :      0.07s CPU      0.08s WALL (    1581 calls)
     vloc_psi     :      0.54s CPU      0.56s WALL (    1581 calls)
     add_vuspsi   :      0.06s CPU      0.06s WALL (    1581 calls)

     General routines
     calbec       :      0.10s CPU      0.10s WALL (    1981 calls)
     fft          :      0.00s CPU      0.00s WALL (     229 calls)
     ffts         :      0.00s CPU      0.00s WALL (      20 calls)
     fftw         :      0.58s CPU      0.60s WALL (   47352 calls)

     Parallel routines
     fft_scatt_xy :      0.06s CPU      0.06s WALL (   47601 calls)
     fft_scatt_yz :      0.34s CPU      0.36s WALL (   47601 calls)

     PWSCF        :      3.52s CPU      3.63s WALL


   This run was terminated on:  17: 8:23   9Mar2022            

=------------------------------------------------------------------------------=
   JOB DONE.
=------------------------------------------------------------------------------=
