
     Program PWSCF v.6.4.1 starts on  9Mar2022 at 17: 9:44 

     This program is part of the open-source Quantum ESPRESSO suite
     for quantum simulation of materials; please cite
         "P. Giannozzi et al., J. Phys.:Condens. Matter 21 395502 (2009);
         "P. Giannozzi et al., J. Phys.:Condens. Matter 29 465901 (2017);
          URL http://www.quantum-espresso.org", 
     in publications or presentations arising from this work. More details at
     http://www.quantum-espresso.org/quote

     Parallel version (MPI), running on     6 processors

     MPI processes distributed on     1 nodes
     R & G space division:  proc/nbgrp/npool/nimage =       6
     Reading input from cr-75.in

     Current dimensions of program PWSCF are:
     Max number of different atomic species (ntypx) = 10
     Max number of k-points (npk) =  40000
     Max angular momentum in pseudopotentials (lmaxx) =  3
               file Cr.pbe-spn-rrkjus_psl.1.0.0.UPF: wavefunction(s)  3P renormalized
               file Cr.pbe-spn-rrkjus_psl.1.0.0.UPF: wavefunction(s)  3P renormalized

     Subspace diagonalization in iterative solution of the eigenvalue problem:
     a serial algorithm will be used

     Message from routine setup:
     DEPRECATED: symmetry with ibrav=0, use correct ibrav instead

     Parallelization info
     --------------------
     sticks:   dense  smooth     PW     G-vecs:    dense   smooth      PW
     Min         120     120     36                 2421     2421     410
     Max         122     122     37                 2422     2422     413
     Sum         725     725    221                14531    14531    2469



     bravais-lattice index     =            0
     lattice parameter (alat)  =       5.4991  a.u.
     unit-cell volume          =     166.2936 (a.u.)^3
     number of atoms/cell      =            2
     number of atomic types    =            2
     number of electrons       =        28.00
     number of Kohn-Sham states=           18
     kinetic-energy cutoff     =      75.0000  Ry
     charge density cutoff     =     300.0000  Ry
     convergence threshold     =      1.0E-06
     mixing beta               =       0.7000
     number of iterations used =            8  plain     mixing
     Exchange-correlation      = PBE ( 1  4  3  4 0 0)

     celldm(1)=   5.499103  celldm(2)=   0.000000  celldm(3)=   0.000000
     celldm(4)=   0.000000  celldm(5)=   0.000000  celldm(6)=   0.000000

     crystal axes: (cart. coord. in units of alat)
               a(1) = (   1.000000   0.000000   0.000000 )  
               a(2) = (   0.000000   1.000000   0.000000 )  
               a(3) = (   0.000000   0.000000   1.000000 )  

     reciprocal axes: (cart. coord. in units 2 pi/alat)
               b(1) = (  1.000000  0.000000  0.000000 )  
               b(2) = (  0.000000  1.000000  0.000000 )  
               b(3) = (  0.000000  0.000000  1.000000 )  


     PseudoPot. # 1 for Cr read from file:
     /home/cristian/Escritorio/Proyecto_Grafeno/pseudopotenciales/Cr.pbe-spn-rrkjus_psl.1.0.0.UPF
     MD5 check sum: 793d051e4f89dd1e3290b85340a92c0a
     Pseudo is Ultrasoft + core correction, Zval = 14.0
     Generated using "atomic" code by A. Dal Corso v.6.2.2
     Using radial grid of 1183 points,  6 beta functions with: 
                l(1) =   0
                l(2) =   0
                l(3) =   1
                l(4) =   1
                l(5) =   2
                l(6) =   2
     Q(r) pseudized with 0 coefficients 


     PseudoPot. # 2 for Cr read from file:
     /home/cristian/Escritorio/Proyecto_Grafeno/pseudopotenciales/Cr.pbe-spn-rrkjus_psl.1.0.0.UPF
     MD5 check sum: 793d051e4f89dd1e3290b85340a92c0a
     Pseudo is Ultrasoft + core correction, Zval = 14.0
     Generated using "atomic" code by A. Dal Corso v.6.2.2
     Using radial grid of 1183 points,  6 beta functions with: 
                l(1) =   0
                l(2) =   0
                l(3) =   1
                l(4) =   1
                l(5) =   2
                l(6) =   2
     Q(r) pseudized with 0 coefficients 


     atomic species   valence    mass     pseudopotential
        Cr1           14.00    51.99610     Cr( 1.00)
        Cr2           14.00    51.99610     Cr( 1.00)

     Starting magnetic structure 
     atomic species   magnetization
        Cr1          0.100
        Cr2         -0.100

     48 Sym. Ops., with inversion, found



   Cartesian axes

     site n.     atom                  positions (alat units)
         1           Cr1 tau(   1) = (   0.0000000   0.0000000   0.0000000  )
         2           Cr2 tau(   2) = (   0.5000000   0.5000000   0.5000000  )

     number of k points=    20  Methfessel-Paxton smearing, width (Ry)=  0.0200
                       cart. coord. in units 2pi/alat
        k(    1) = (   0.0625000   0.0625000   0.0625000), wk =   0.0156250
        k(    2) = (   0.0625000   0.0625000   0.1875000), wk =   0.0468750
        k(    3) = (   0.0625000   0.0625000   0.3125000), wk =   0.0468750
        k(    4) = (   0.0625000   0.0625000   0.4375000), wk =   0.0468750
        k(    5) = (   0.0625000   0.1875000   0.1875000), wk =   0.0468750
        k(    6) = (   0.0625000   0.1875000   0.3125000), wk =   0.0937500
        k(    7) = (   0.0625000   0.1875000   0.4375000), wk =   0.0937500
        k(    8) = (   0.0625000   0.3125000   0.3125000), wk =   0.0468750
        k(    9) = (   0.0625000   0.3125000   0.4375000), wk =   0.0937500
        k(   10) = (   0.0625000   0.4375000   0.4375000), wk =   0.0468750
        k(   11) = (   0.1875000   0.1875000   0.1875000), wk =   0.0156250
        k(   12) = (   0.1875000   0.1875000   0.3125000), wk =   0.0468750
        k(   13) = (   0.1875000   0.1875000   0.4375000), wk =   0.0468750
        k(   14) = (   0.1875000   0.3125000   0.3125000), wk =   0.0468750
        k(   15) = (   0.1875000   0.3125000   0.4375000), wk =   0.0937500
        k(   16) = (   0.1875000   0.4375000   0.4375000), wk =   0.0468750
        k(   17) = (   0.3125000   0.3125000   0.3125000), wk =   0.0156250
        k(   18) = (   0.3125000   0.3125000   0.4375000), wk =   0.0468750
        k(   19) = (   0.3125000   0.4375000   0.4375000), wk =   0.0468750
        k(   20) = (   0.4375000   0.4375000   0.4375000), wk =   0.0156250

     Dense  grid:    14531 G-vectors     FFT dimensions: (  32,  32,  32)

     Estimated max dynamical RAM per process >      15.45 MB

     Estimated total dynamical RAM >      92.69 MB
     Generating pointlists ...
     new r_m :   0.3572 (alat units)  1.9645 (a.u.) for type    1
     new r_m :   0.3572 (alat units)  1.9645 (a.u.) for type    2

     Check: negative core charge=   -0.000021

     Initial potential from superposition of free atoms

     starting charge   27.99845, renormalised to   28.00000
     Starting wfcs are   20 randomized atomic wfcs

     total cpu time spent up to now is        1.8 secs

     Self-consistent Calculation

     iteration #  1     ecut=    75.00 Ry     beta= 0.70
     Davidson diagonalization with overlap
     ethr =  1.00E-02,  avg # of iterations =  2.5

     Threshold (ethr) on eigenvalues was too large:
     Diagonalizing with lowered threshold

     Davidson diagonalization with overlap
     ethr =  6.38E-04,  avg # of iterations =  2.3

     total cpu time spent up to now is        3.2 secs

     total energy              =    -349.90074964 Ry
     Harris-Foulkes estimate   =    -350.02635182 Ry
     estimated scf accuracy    <       0.19176362 Ry

     total magnetization       =     0.00 Bohr mag/cell
     absolute magnetization    =     2.15 Bohr mag/cell

     iteration #  2     ecut=    75.00 Ry     beta= 0.70
     Davidson diagonalization with overlap
     ethr =  6.85E-04,  avg # of iterations =  3.1

     total cpu time spent up to now is        4.3 secs

     total energy              =    -349.93411564 Ry
     Harris-Foulkes estimate   =    -350.05676580 Ry
     estimated scf accuracy    <       0.26734798 Ry

     total magnetization       =     0.00 Bohr mag/cell
     absolute magnetization    =     2.73 Bohr mag/cell

     iteration #  3     ecut=    75.00 Ry     beta= 0.70
     Davidson diagonalization with overlap
     ethr =  6.85E-04,  avg # of iterations =  3.0

     total cpu time spent up to now is        5.0 secs

     total energy              =    -349.98717673 Ry
     Harris-Foulkes estimate   =    -349.98737157 Ry
     estimated scf accuracy    <       0.00188017 Ry

     total magnetization       =    -0.00 Bohr mag/cell
     absolute magnetization    =     2.50 Bohr mag/cell

     iteration #  4     ecut=    75.00 Ry     beta= 0.70
     Davidson diagonalization with overlap
     ethr =  6.71E-06,  avg # of iterations =  4.0

     total cpu time spent up to now is        6.2 secs

     total energy              =    -349.98098972 Ry
     Harris-Foulkes estimate   =    -349.99588882 Ry
     estimated scf accuracy    <       0.15748780 Ry

     total magnetization       =     0.02 Bohr mag/cell
     absolute magnetization    =     2.55 Bohr mag/cell

     iteration #  5     ecut=    75.00 Ry     beta= 0.70
     Davidson diagonalization with overlap
     ethr =  6.71E-06,  avg # of iterations =  4.2

     total cpu time spent up to now is        7.3 secs

     total energy              =    -349.98857528 Ry
     Harris-Foulkes estimate   =    -349.98847194 Ry
     estimated scf accuracy    <       0.00015559 Ry

     total magnetization       =    -0.00 Bohr mag/cell
     absolute magnetization    =     2.62 Bohr mag/cell

     iteration #  6     ecut=    75.00 Ry     beta= 0.70
     Davidson diagonalization with overlap
     ethr =  5.56E-07,  avg # of iterations =  3.5

     total cpu time spent up to now is        8.1 secs

     total energy              =    -349.98836891 Ry
     Harris-Foulkes estimate   =    -349.98862489 Ry
     estimated scf accuracy    <       0.00009854 Ry

     total magnetization       =    -0.00 Bohr mag/cell
     absolute magnetization    =     2.68 Bohr mag/cell

     iteration #  7     ecut=    75.00 Ry     beta= 0.70
     Davidson diagonalization with overlap
     ethr =  3.52E-07,  avg # of iterations =  4.5

     total cpu time spent up to now is        9.1 secs

     total energy              =    -349.98887866 Ry
     Harris-Foulkes estimate   =    -349.98898509 Ry
     estimated scf accuracy    <       0.00002642 Ry

     total magnetization       =    -0.00 Bohr mag/cell
     absolute magnetization    =     2.92 Bohr mag/cell

     iteration #  8     ecut=    75.00 Ry     beta= 0.70
     Davidson diagonalization with overlap
     ethr =  9.44E-08,  avg # of iterations =  4.6

     Magnetic moment per site:
     atom:    1    charge:   12.2806    magn:    1.4194    constr:    0.0000
     atom:    2    charge:   12.2802    magn:   -1.4194    constr:    0.0000

     total cpu time spent up to now is       10.1 secs

     End of self-consistent calculation

 ------ SPIN UP ------------


          k = 0.0625 0.0625 0.0625 (  1824 PWs)   bands (ev):

   -54.2024 -52.6665 -25.5246 -25.5246 -25.5130 -23.8812 -23.8676 -23.8676
    10.7086  14.3337  14.3337  17.2178  17.2178  17.4374  19.3681  19.3681
    20.2788  20.6762

          k = 0.0625 0.0625 0.1875 (  1836 PWs)   bands (ev):

   -54.1962 -52.6664 -25.5516 -25.5108 -25.5030 -23.9254 -23.8771 -23.8763
    11.3309  14.6379  14.6395  17.0895  17.1450  17.6597  19.0019  19.5341
    19.5825  20.0169

          k = 0.0625 0.0625 0.3125 (  1823 PWs)   bands (ev):

   -54.1874 -52.6663 -25.5871 -25.4908 -25.4908 -23.9886 -23.8907 -23.8869
    12.4504  14.9651  15.2057  17.0357  17.0534  17.8089  18.3785  19.0590
    19.2383  19.7811

          k = 0.0625 0.0625 0.4375 (  1830 PWs)   bands (ev):

   -54.1812 -52.6663 -25.6118 -25.4827 -25.4765 -24.0331 -23.9007 -23.8945
    13.7565  14.7849  15.8848  16.8203  17.1492  17.7104  17.8236  18.7368
    19.0670  19.9238

          k = 0.0625 0.1875 0.1875 (  1835 PWs)   bands (ev):

   -54.1908 -52.6654 -25.5664 -25.5230 -25.4971 -23.9452 -23.8908 -23.8829
    11.9042  14.8301  15.0039  16.8108  16.9736  17.7431  19.0874  19.1573
    19.4454  19.6258

          k = 0.0625 0.1875 0.3125 (  1828 PWs)   bands (ev):

   -54.1831 -52.6639 -25.6011 -25.5309 -25.4848 -23.9806 -23.9048 -23.8894
    12.8983  15.0238  15.5470  16.6250  16.8364  17.3853  18.7875  19.0657
    19.3954  19.6767

          k = 0.0625 0.1875 0.4375 (  1825 PWs)   bands (ev):

   -54.1777 -52.6629 -25.6279 -25.5364 -25.4742 -24.0066 -23.9143 -23.8926
    13.9846  14.7854  16.0525  16.5187  16.8772  17.0535  18.5064  18.8788
    19.6604  20.1861

          k = 0.0625 0.3125 0.3125 (  1831 PWs)   bands (ev):

   -54.1771 -52.6605 -25.6266 -25.5825 -25.4753 -23.9736 -23.9215 -23.8914
    13.5473  14.8223  16.2512  16.3263  16.7904  16.9559  18.8798  19.2239
    19.5645  20.0079

          k = 0.0625 0.3125 0.4375 (  1828 PWs)   bands (ev):

   -54.1728 -52.6580 -25.6517 -25.6119 -25.4682 -23.9726 -23.9311 -23.8910
    14.0780  14.4850  16.1717  16.3639  16.9249  17.4416  18.9886  19.2092
    19.8029  20.6545

          k = 0.0625 0.4375 0.4375 (  1819 PWs)   bands (ev):

   -54.1693 -52.6546 -25.6696 -25.6625 -25.4638 -23.9508 -23.9418 -23.8896
    14.0339  14.2271  15.9440  16.0083  18.0485  18.4057  19.2050  19.4980
    19.5145  20.5578

          k = 0.1875 0.1875 0.1875 (  1833 PWs)   bands (ev):

   -54.1860 -52.6636 -25.5497 -25.5497 -25.5157 -23.9440 -23.9030 -23.9030
    12.4580  15.1915  15.1915  16.6485  16.6485  17.2192  19.3239  19.3239
    19.3534  20.1074

          k = 0.1875 0.1875 0.3125 (  1836 PWs)   bands (ev):

   -54.1791 -52.6612 -25.5974 -25.5322 -25.5258 -23.9678 -23.9209 -23.9054
    13.3894  15.4766  15.5104  16.4068  16.4997  16.7600  19.1068  19.4308
    19.5593  19.9881

          k = 0.1875 0.1875 0.4375 (  1826 PWs)   bands (ev):

   -54.1743 -52.6595 -25.6317 -25.5430 -25.5085 -23.9927 -23.9339 -23.8984
    14.3435  15.0718  15.8573  16.1501  16.5997  16.9657  18.8956  19.0586
    19.4914  20.2907

          k = 0.1875 0.3125 0.3125 (  1824 PWs)   bands (ev):

   -54.1735 -52.6573 -25.6057 -25.5840 -25.5186 -23.9654 -23.9382 -23.9181
    14.0894  15.2729  16.0666  16.2281  16.3139  16.4785  19.2611  19.4239
    19.5256  20.2228

          k = 0.1875 0.3125 0.4375 (  1819 PWs)   bands (ev):

   -54.1694 -52.6546 -25.6387 -25.5987 -25.5077 -23.9766 -23.9530 -23.9121
    14.5495  14.9520  15.9314  16.0901  16.6205  17.0931  19.1532  19.3822
    19.4777  20.2976

          k = 0.1875 0.4375 0.4375 (  1810 PWs)   bands (ev):

   -54.1660 -52.6512 -25.6458 -25.6426 -25.4998 -23.9688 -23.9620 -23.9228
    14.4642  14.7602  15.8273  15.8626  17.5533  17.5886  19.1980  19.2317
    19.7044  20.3242

          k = 0.3125 0.3125 0.3125 (  1827 PWs)   bands (ev):

   -54.1683 -52.6529 -25.5899 -25.5757 -25.5757 -23.9627 -23.9627 -23.9472
    14.8710  15.6961  15.8426  15.8426  16.2479  16.2479  19.3699  19.3699
    19.8836  19.8836

          k = 0.3125 0.3125 0.4375 (  1816 PWs)   bands (ev):

   -54.1647 -52.6498 -25.6227 -25.5868 -25.5536 -23.9841 -23.9805 -23.9442
    15.0533  15.5284  15.6956  16.0754  16.1797  16.8437  19.2297  19.2581
    19.7981  20.2175

          k = 0.3125 0.4375 0.4375 (  1808 PWs)   bands (ev):

   -54.1614 -52.6464 -25.6139 -25.6109 -25.5505 -23.9954 -23.9915 -23.9694
    15.0730  15.5648  15.6822  15.7886  16.8404  16.9161  19.1303  19.2000
    20.0266  20.3041

          k = 0.4375 0.4375 0.4375 (  1820 PWs)   bands (ev):

   -54.1581 -52.6429 -25.5939 -25.5855 -25.5855 -24.0134 -24.0134 -24.0036
    15.4380  15.6000  15.6000  16.4568  16.5123  16.5123  19.1101  19.1101
    20.3127  20.3127

 ------ SPIN DOWN ----------


          k = 0.0625 0.0625 0.0625 (  1824 PWs)   bands (ev):

   -54.2018 -52.6672 -25.5242 -25.5242 -25.5126 -23.8816 -23.8680 -23.8680
    10.7086  14.3337  14.3337  17.2180  17.2180  17.4376  19.3680  19.3680
    20.2786  20.6760

          k = 0.0625 0.0625 0.1875 (  1836 PWs)   bands (ev):

   -54.1956 -52.6672 -25.5512 -25.5104 -25.5025 -23.9258 -23.8775 -23.8767
    11.3310  14.6380  14.6395  17.0897  17.1452  17.6599  19.0018  19.5341
    19.5823  20.0168

          k = 0.0625 0.0625 0.3125 (  1823 PWs)   bands (ev):

   -54.1868 -52.6671 -25.5867 -25.4904 -25.4904 -23.9890 -23.8912 -23.8873
    12.4505  14.9652  15.2058  17.0359  17.0536  17.8092  18.3785  19.0588
    19.2382  19.7811

          k = 0.0625 0.0625 0.4375 (  1830 PWs)   bands (ev):

   -54.1806 -52.6670 -25.6114 -25.4822 -25.4761 -24.0336 -23.9012 -23.8950
    13.7566  14.7850  15.8849  16.8204  17.1494  17.7106  17.8237  18.7366
    19.0670  19.9236

          k = 0.0625 0.1875 0.1875 (  1835 PWs)   bands (ev):

   -54.1902 -52.6661 -25.5660 -25.5226 -25.4967 -23.9457 -23.8913 -23.8833
    11.9042  14.8301  15.0039  16.8110  16.9738  17.7434  19.0873  19.1571
    19.4453  19.6257

          k = 0.0625 0.1875 0.3125 (  1828 PWs)   bands (ev):

   -54.1825 -52.6647 -25.6007 -25.5305 -25.4844 -23.9810 -23.9052 -23.8898
    12.8983  15.0239  15.5471  16.6252  16.8365  17.3855  18.7875  19.0656
    19.3952  19.6767

          k = 0.0625 0.1875 0.4375 (  1825 PWs)   bands (ev):

   -54.1771 -52.6636 -25.6275 -25.5360 -25.4738 -24.0071 -23.9147 -23.8930
    13.9846  14.7855  16.0526  16.5189  16.8773  17.0536  18.5064  18.8787
    19.6605  20.1861

          k = 0.0625 0.3125 0.3125 (  1831 PWs)   bands (ev):

   -54.1765 -52.6612 -25.6262 -25.5821 -25.4749 -23.9741 -23.9219 -23.8919
    13.5474  14.8224  16.2514  16.3264  16.7905  16.9560  18.8797  19.2238
    19.5645  20.0078

          k = 0.0625 0.3125 0.4375 (  1828 PWs)   bands (ev):

   -54.1722 -52.6588 -25.6513 -25.6115 -25.4677 -23.9730 -23.9315 -23.8914
    14.0781  14.4850  16.1718  16.3640  16.9250  17.4416  18.9887  19.2091
    19.8030  20.6543

          k = 0.0625 0.4375 0.4375 (  1819 PWs)   bands (ev):

   -54.1687 -52.6554 -25.6693 -25.6622 -25.4634 -23.9512 -23.9422 -23.8900
    14.0340  14.2271  15.9441  16.0085  18.0487  18.4058  19.2050  19.4981
    19.5144  20.5575

          k = 0.1875 0.1875 0.1875 (  1833 PWs)   bands (ev):

   -54.1854 -52.6644 -25.5493 -25.5493 -25.5153 -23.9445 -23.9035 -23.9035
    12.4581  15.1916  15.1916  16.6487  16.6487  17.2194  19.3238  19.3238
    19.3533  20.1073

          k = 0.1875 0.1875 0.3125 (  1836 PWs)   bands (ev):

   -54.1785 -52.6619 -25.5970 -25.5318 -25.5254 -23.9683 -23.9214 -23.9058
    13.3895  15.4766  15.5105  16.4069  16.4998  16.7601  19.1068  19.4307
    19.5594  19.9881

          k = 0.1875 0.1875 0.4375 (  1826 PWs)   bands (ev):

   -54.1737 -52.6602 -25.6313 -25.5426 -25.5081 -23.9932 -23.9343 -23.8988
    14.3436  15.0719  15.8574  16.1502  16.5999  16.9657  18.8956  19.0586
    19.4916  20.2905

          k = 0.1875 0.3125 0.3125 (  1824 PWs)   bands (ev):

   -54.1729 -52.6581 -25.6053 -25.5836 -25.5182 -23.9658 -23.9386 -23.9186
    14.0895  15.2730  16.0667  16.2282  16.3139  16.4786  19.2611  19.4237
    19.5256  20.2227

          k = 0.1875 0.3125 0.4375 (  1819 PWs)   bands (ev):

   -54.1688 -52.6554 -25.6383 -25.5983 -25.5072 -23.9770 -23.9534 -23.9126
    14.5496  14.9520  15.9315  16.0902  16.6206  17.0931  19.1533  19.3822
    19.4778  20.2973

          k = 0.1875 0.4375 0.4375 (  1810 PWs)   bands (ev):

   -54.1654 -52.6519 -25.6454 -25.6422 -25.4993 -23.9692 -23.9624 -23.9232
    14.4644  14.7602  15.8274  15.8628  17.5534  17.5886  19.1982  19.2320
    19.7042  20.3238

          k = 0.3125 0.3125 0.3125 (  1827 PWs)   bands (ev):

   -54.1678 -52.6537 -25.5895 -25.5752 -25.5752 -23.9631 -23.9631 -23.9476
    14.8711  15.6961  15.8428  15.8428  16.2479  16.2479  19.3700  19.3700
    19.8834  19.8834

          k = 0.3125 0.3125 0.4375 (  1816 PWs)   bands (ev):

   -54.1641 -52.6505 -25.6223 -25.5864 -25.5532 -23.9845 -23.9810 -23.9446
    15.0534  15.5284  15.6958  16.0755  16.1798  16.8437  19.2298  19.2583
    19.7979  20.2172

          k = 0.3125 0.4375 0.4375 (  1808 PWs)   bands (ev):

   -54.1608 -52.6471 -25.6135 -25.6105 -25.5501 -23.9959 -23.9919 -23.9699
    15.0731  15.5648  15.6824  15.7887  16.8403  16.9160  19.1306  19.2002
    20.0263  20.3037

          k = 0.4375 0.4375 0.4375 (  1820 PWs)   bands (ev):

   -54.1576 -52.6437 -25.5935 -25.5851 -25.5851 -24.0138 -24.0138 -24.0040
    15.4381  15.6002  15.6002  16.4567  16.5122  16.5122  19.1104  19.1104
    20.3123  20.3123

     the Fermi energy is    18.2004 ev

!    total energy              =    -349.98905579 Ry
     Harris-Foulkes estimate   =    -349.98905519 Ry
     estimated scf accuracy    <       0.00000052 Ry

     The total energy is the sum of the following terms:

     one-electron contribution =    -121.61211646 Ry
     hartree contribution      =      75.61565175 Ry
     xc contribution           =     -44.57285775 Ry
     ewald contribution        =    -259.42040004 Ry
     smearing contrib. (-TS)   =       0.00066671 Ry

     total magnetization       =     0.00 Bohr mag/cell
     absolute magnetization    =     3.04 Bohr mag/cell

     convergence has been achieved in   8 iterations

     Writing output data file cr-75.save/

     init_run     :      0.44s CPU      0.46s WALL (       1 calls)
     electrons    :      8.07s CPU      8.25s WALL (       1 calls)

     Called by init_run:
     wfcinit      :      0.23s CPU      0.24s WALL (       1 calls)
     potinit      :      0.02s CPU      0.02s WALL (       1 calls)
     hinit0       :      0.18s CPU      0.18s WALL (       1 calls)

     Called by electrons:
     c_bands      :      6.93s CPU      7.08s WALL (       9 calls)
     sum_band     :      0.94s CPU      0.97s WALL (       9 calls)
     v_of_rho     :      0.09s CPU      0.09s WALL (       9 calls)
     newd         :      0.12s CPU      0.13s WALL (       9 calls)
     mix_rho      :      0.01s CPU      0.01s WALL (       9 calls)

     Called by c_bands:
     init_us_2    :      0.09s CPU      0.09s WALL (     760 calls)
     cegterg      :      6.55s CPU      6.69s WALL (     360 calls)

     Called by sum_band:
     sum_band:bec :      0.01s CPU      0.01s WALL (     360 calls)
     addusdens    :      0.20s CPU      0.21s WALL (       9 calls)

     Called by *egterg:
     h_psi        :      3.48s CPU      3.56s WALL (    1668 calls)
     s_psi        :      0.36s CPU      0.37s WALL (    1668 calls)
     g_psi        :      0.03s CPU      0.03s WALL (    1268 calls)
     cdiaghg      :      1.06s CPU      1.08s WALL (    1588 calls)

     Called by h_psi:
     h_psi:pot    :      3.47s CPU      3.54s WALL (    1668 calls)
     h_psi:calbec :      0.51s CPU      0.52s WALL (    1668 calls)
     vloc_psi     :      2.60s CPU      2.65s WALL (    1668 calls)
     add_vuspsi   :      0.36s CPU      0.37s WALL (    1668 calls)

     General routines
     calbec       :      0.68s CPU      0.70s WALL (    2028 calls)
     fft          :      0.04s CPU      0.04s WALL (     189 calls)
     ffts         :      0.00s CPU      0.00s WALL (      18 calls)
     fftw         :      2.65s CPU      2.71s WALL (   44792 calls)

     Parallel routines
     fft_scatt_xy :      0.36s CPU      0.36s WALL (   44999 calls)
     fft_scatt_yz :      1.34s CPU      1.37s WALL (   44999 calls)

     PWSCF        :      9.93s CPU     10.18s WALL


   This run was terminated on:  17: 9:54   9Mar2022            

=------------------------------------------------------------------------------=
   JOB DONE.
=------------------------------------------------------------------------------=
