
     Program PWSCF v.6.4.1 starts on  9Mar2022 at 17:10:19 

     This program is part of the open-source Quantum ESPRESSO suite
     for quantum simulation of materials; please cite
         "P. Giannozzi et al., J. Phys.:Condens. Matter 21 395502 (2009);
         "P. Giannozzi et al., J. Phys.:Condens. Matter 29 465901 (2017);
          URL http://www.quantum-espresso.org", 
     in publications or presentations arising from this work. More details at
     http://www.quantum-espresso.org/quote

     Parallel version (MPI), running on     6 processors

     MPI processes distributed on     1 nodes
     R & G space division:  proc/nbgrp/npool/nimage =       6
     Reading input from cr-90.in

     Current dimensions of program PWSCF are:
     Max number of different atomic species (ntypx) = 10
     Max number of k-points (npk) =  40000
     Max angular momentum in pseudopotentials (lmaxx) =  3
               file Cr.pbe-spn-rrkjus_psl.1.0.0.UPF: wavefunction(s)  3P renormalized
               file Cr.pbe-spn-rrkjus_psl.1.0.0.UPF: wavefunction(s)  3P renormalized

     Subspace diagonalization in iterative solution of the eigenvalue problem:
     a serial algorithm will be used

     Message from routine setup:
     DEPRECATED: symmetry with ibrav=0, use correct ibrav instead

     Parallelization info
     --------------------
     sticks:   dense  smooth     PW     G-vecs:    dense   smooth      PW
     Min         144     144     43                 3200     3200     519
     Max         145     145     44                 3203     3203     521
     Sum         869     869    261                19213    19213    3119



     bravais-lattice index     =            0
     lattice parameter (alat)  =       5.4991  a.u.
     unit-cell volume          =     166.2936 (a.u.)^3
     number of atoms/cell      =            2
     number of atomic types    =            2
     number of electrons       =        28.00
     number of Kohn-Sham states=           18
     kinetic-energy cutoff     =      90.0000  Ry
     charge density cutoff     =     360.0000  Ry
     convergence threshold     =      1.0E-06
     mixing beta               =       0.7000
     number of iterations used =            8  plain     mixing
     Exchange-correlation      = PBE ( 1  4  3  4 0 0)

     celldm(1)=   5.499103  celldm(2)=   0.000000  celldm(3)=   0.000000
     celldm(4)=   0.000000  celldm(5)=   0.000000  celldm(6)=   0.000000

     crystal axes: (cart. coord. in units of alat)
               a(1) = (   1.000000   0.000000   0.000000 )  
               a(2) = (   0.000000   1.000000   0.000000 )  
               a(3) = (   0.000000   0.000000   1.000000 )  

     reciprocal axes: (cart. coord. in units 2 pi/alat)
               b(1) = (  1.000000  0.000000  0.000000 )  
               b(2) = (  0.000000  1.000000  0.000000 )  
               b(3) = (  0.000000  0.000000  1.000000 )  


     PseudoPot. # 1 for Cr read from file:
     /home/cristian/Escritorio/Proyecto_Grafeno/pseudopotenciales/Cr.pbe-spn-rrkjus_psl.1.0.0.UPF
     MD5 check sum: 793d051e4f89dd1e3290b85340a92c0a
     Pseudo is Ultrasoft + core correction, Zval = 14.0
     Generated using "atomic" code by A. Dal Corso v.6.2.2
     Using radial grid of 1183 points,  6 beta functions with: 
                l(1) =   0
                l(2) =   0
                l(3) =   1
                l(4) =   1
                l(5) =   2
                l(6) =   2
     Q(r) pseudized with 0 coefficients 


     PseudoPot. # 2 for Cr read from file:
     /home/cristian/Escritorio/Proyecto_Grafeno/pseudopotenciales/Cr.pbe-spn-rrkjus_psl.1.0.0.UPF
     MD5 check sum: 793d051e4f89dd1e3290b85340a92c0a
     Pseudo is Ultrasoft + core correction, Zval = 14.0
     Generated using "atomic" code by A. Dal Corso v.6.2.2
     Using radial grid of 1183 points,  6 beta functions with: 
                l(1) =   0
                l(2) =   0
                l(3) =   1
                l(4) =   1
                l(5) =   2
                l(6) =   2
     Q(r) pseudized with 0 coefficients 


     atomic species   valence    mass     pseudopotential
        Cr1           14.00    51.99610     Cr( 1.00)
        Cr2           14.00    51.99610     Cr( 1.00)

     Starting magnetic structure 
     atomic species   magnetization
        Cr1          0.100
        Cr2         -0.100

     48 Sym. Ops., with inversion, found



   Cartesian axes

     site n.     atom                  positions (alat units)
         1           Cr1 tau(   1) = (   0.0000000   0.0000000   0.0000000  )
         2           Cr2 tau(   2) = (   0.5000000   0.5000000   0.5000000  )

     number of k points=    20  Methfessel-Paxton smearing, width (Ry)=  0.0200
                       cart. coord. in units 2pi/alat
        k(    1) = (   0.0625000   0.0625000   0.0625000), wk =   0.0156250
        k(    2) = (   0.0625000   0.0625000   0.1875000), wk =   0.0468750
        k(    3) = (   0.0625000   0.0625000   0.3125000), wk =   0.0468750
        k(    4) = (   0.0625000   0.0625000   0.4375000), wk =   0.0468750
        k(    5) = (   0.0625000   0.1875000   0.1875000), wk =   0.0468750
        k(    6) = (   0.0625000   0.1875000   0.3125000), wk =   0.0937500
        k(    7) = (   0.0625000   0.1875000   0.4375000), wk =   0.0937500
        k(    8) = (   0.0625000   0.3125000   0.3125000), wk =   0.0468750
        k(    9) = (   0.0625000   0.3125000   0.4375000), wk =   0.0937500
        k(   10) = (   0.0625000   0.4375000   0.4375000), wk =   0.0468750
        k(   11) = (   0.1875000   0.1875000   0.1875000), wk =   0.0156250
        k(   12) = (   0.1875000   0.1875000   0.3125000), wk =   0.0468750
        k(   13) = (   0.1875000   0.1875000   0.4375000), wk =   0.0468750
        k(   14) = (   0.1875000   0.3125000   0.3125000), wk =   0.0468750
        k(   15) = (   0.1875000   0.3125000   0.4375000), wk =   0.0937500
        k(   16) = (   0.1875000   0.4375000   0.4375000), wk =   0.0468750
        k(   17) = (   0.3125000   0.3125000   0.3125000), wk =   0.0156250
        k(   18) = (   0.3125000   0.3125000   0.4375000), wk =   0.0468750
        k(   19) = (   0.3125000   0.4375000   0.4375000), wk =   0.0468750
        k(   20) = (   0.4375000   0.4375000   0.4375000), wk =   0.0156250

     Dense  grid:    19213 G-vectors     FFT dimensions: (  36,  36,  36)

     Estimated max dynamical RAM per process >      19.80 MB

     Estimated total dynamical RAM >     118.83 MB
     Generating pointlists ...
     new r_m :   0.3572 (alat units)  1.9645 (a.u.) for type    1
     new r_m :   0.3572 (alat units)  1.9645 (a.u.) for type    2

     Check: negative core charge=   -0.000006

     Initial potential from superposition of free atoms

     starting charge   27.99845, renormalised to   28.00000
     Starting wfcs are   20 randomized atomic wfcs

     total cpu time spent up to now is        2.1 secs

     Self-consistent Calculation

     iteration #  1     ecut=    90.00 Ry     beta= 0.70
     Davidson diagonalization with overlap
     ethr =  1.00E-02,  avg # of iterations =  2.5

     Threshold (ethr) on eigenvalues was too large:
     Diagonalizing with lowered threshold

     Davidson diagonalization with overlap
     ethr =  6.39E-04,  avg # of iterations =  2.2

     total cpu time spent up to now is        4.5 secs

     total energy              =    -349.90161384 Ry
     Harris-Foulkes estimate   =    -350.02718979 Ry
     estimated scf accuracy    <       0.19158625 Ry

     total magnetization       =    -0.00 Bohr mag/cell
     absolute magnetization    =     2.15 Bohr mag/cell

     iteration #  2     ecut=    90.00 Ry     beta= 0.70
     Davidson diagonalization with overlap
     ethr =  6.84E-04,  avg # of iterations =  3.0

     total cpu time spent up to now is        6.2 secs

     total energy              =    -349.93499736 Ry
     Harris-Foulkes estimate   =    -350.05741260 Ry
     estimated scf accuracy    <       0.26674933 Ry

     total magnetization       =    -0.00 Bohr mag/cell
     absolute magnetization    =     2.74 Bohr mag/cell

     iteration #  3     ecut=    90.00 Ry     beta= 0.70
     Davidson diagonalization with overlap
     ethr =  6.84E-04,  avg # of iterations =  3.0

     total cpu time spent up to now is        7.5 secs

     total energy              =    -349.98858410 Ry
     Harris-Foulkes estimate   =    -349.98815228 Ry
     estimated scf accuracy    <       0.00119248 Ry

     total magnetization       =    -0.00 Bohr mag/cell
     absolute magnetization    =     2.50 Bohr mag/cell

     iteration #  4     ecut=    90.00 Ry     beta= 0.70
     Davidson diagonalization with overlap
     ethr =  4.26E-06,  avg # of iterations =  4.0

     total cpu time spent up to now is        9.3 secs

     total energy              =    -349.98873599 Ry
     Harris-Foulkes estimate   =    -349.98976337 Ry
     estimated scf accuracy    <       0.00989472 Ry

     total magnetization       =     0.00 Bohr mag/cell
     absolute magnetization    =     2.62 Bohr mag/cell

     iteration #  5     ecut=    90.00 Ry     beta= 0.70
     Davidson diagonalization with overlap
     ethr =  4.26E-06,  avg # of iterations =  3.5

     total cpu time spent up to now is       10.5 secs

     total energy              =    -349.98940320 Ry
     Harris-Foulkes estimate   =    -349.98930890 Ry
     estimated scf accuracy    <       0.00024565 Ry

     total magnetization       =    -0.00 Bohr mag/cell
     absolute magnetization    =     2.62 Bohr mag/cell

     iteration #  6     ecut=    90.00 Ry     beta= 0.70
     Davidson diagonalization with overlap
     ethr =  8.77E-07,  avg # of iterations =  2.8

     total cpu time spent up to now is       11.6 secs

     total energy              =    -349.98926049 Ry
     Harris-Foulkes estimate   =    -349.98945938 Ry
     estimated scf accuracy    <       0.00008879 Ry

     total magnetization       =    -0.00 Bohr mag/cell
     absolute magnetization    =     2.69 Bohr mag/cell

     iteration #  7     ecut=    90.00 Ry     beta= 0.70
     Davidson diagonalization with overlap
     ethr =  3.17E-07,  avg # of iterations =  4.5

     total cpu time spent up to now is       13.2 secs

     total energy              =    -349.98957046 Ry
     Harris-Foulkes estimate   =    -349.98979495 Ry
     estimated scf accuracy    <       0.00003685 Ry

     total magnetization       =    -0.00 Bohr mag/cell
     absolute magnetization    =     2.91 Bohr mag/cell

     iteration #  8     ecut=    90.00 Ry     beta= 0.70
     Davidson diagonalization with overlap
     ethr =  1.32E-07,  avg # of iterations =  4.6

     total cpu time spent up to now is       14.8 secs

     total energy              =    -349.98987358 Ry
     Harris-Foulkes estimate   =    -349.98987365 Ry
     estimated scf accuracy    <       0.00000796 Ry

     total magnetization       =     0.00 Bohr mag/cell
     absolute magnetization    =     3.07 Bohr mag/cell

     iteration #  9     ecut=    90.00 Ry     beta= 0.70
     Davidson diagonalization with overlap
     ethr =  2.84E-08,  avg # of iterations =  3.1

     Magnetic moment per site:
     atom:    1    charge:   12.2804    magn:    1.4270    constr:    0.0000
     atom:    2    charge:   12.2792    magn:   -1.4269    constr:    0.0000

     total cpu time spent up to now is       16.0 secs

     End of self-consistent calculation

 ------ SPIN UP ------------


          k = 0.0625 0.0625 0.0625 (  2418 PWs)   bands (ev):

   -54.2015 -52.6557 -25.5296 -25.5296 -25.5182 -23.8744 -23.8608 -23.8608
    10.7070  14.3324  14.3324  17.2161  17.2161  17.4353  19.3697  19.3697
    20.2821  20.6792

          k = 0.0625 0.0625 0.1875 (  2408 PWs)   bands (ev):

   -54.1954 -52.6556 -25.5566 -25.5158 -25.5080 -23.9185 -23.8702 -23.8694
    11.3293  14.6365  14.6380  17.0877  17.1430  17.6567  19.0036  19.5357
    19.5865  20.0200

          k = 0.0625 0.0625 0.3125 (  2391 PWs)   bands (ev):

   -54.1866 -52.6555 -25.5923 -25.4960 -25.4959 -23.9819 -23.8839 -23.8800
    12.4487  14.9638  15.2039  17.0333  17.0513  17.8052  18.3803  19.0634
    19.2418  19.7819

          k = 0.0625 0.0625 0.4375 (  2393 PWs)   bands (ev):

   -54.1804 -52.6554 -25.6171 -25.4878 -25.4817 -24.0264 -23.8937 -23.8875
    13.7546  14.7837  15.8815  16.8191  17.1462  17.7083  17.8248  18.7410
    19.0691  19.9272

          k = 0.0625 0.1875 0.1875 (  2395 PWs)   bands (ev):

   -54.1900 -52.6545 -25.5713 -25.5282 -25.5023 -23.9383 -23.8841 -23.8760
    11.9026  14.8286  15.0024  16.8094  16.9715  17.7389  19.0901  19.1611
    19.4470  19.6290

          k = 0.0625 0.1875 0.3125 (  2393 PWs)   bands (ev):

   -54.1823 -52.6530 -25.6062 -25.5360 -25.4899 -23.9738 -23.8981 -23.8825
    12.8966  15.0223  15.5453  16.6235  16.8342  17.3826  18.7895  19.0680
    19.3991  19.6781

          k = 0.0625 0.1875 0.4375 (  2401 PWs)   bands (ev):

   -54.1769 -52.6520 -25.6332 -25.5415 -25.4794 -24.0001 -23.9075 -23.8856
    13.9829  14.7840  16.0496  16.5171  16.8762  17.0520  18.5081  18.8809
    19.6608  20.1869

          k = 0.0625 0.3125 0.3125 (  2389 PWs)   bands (ev):

   -54.1763 -52.6496 -25.6314 -25.5877 -25.4805 -23.9669 -23.9150 -23.8844
    13.5458  14.8209  16.2496  16.3249  16.7885  16.9534  18.8825  19.2255
    19.5659  20.0105

          k = 0.0625 0.3125 0.4375 (  2397 PWs)   bands (ev):

   -54.1720 -52.6472 -25.6567 -25.6168 -25.4733 -23.9661 -23.9245 -23.8840
    14.0767  14.4836  16.1703  16.3626  16.9217  17.4410  18.9895  19.2111
    19.8028  20.6571

          k = 0.0625 0.4375 0.4375 (  2400 PWs)   bands (ev):

   -54.1685 -52.6437 -25.6746 -25.6675 -25.4690 -23.9445 -23.9356 -23.8825
    14.0326  14.2259  15.9428  16.0071  18.0459  18.4035  19.2046  19.4963
    19.5179  20.5624

          k = 0.1875 0.1875 0.1875 (  2388 PWs)   bands (ev):

   -54.1852 -52.6528 -25.5547 -25.5547 -25.5210 -23.9370 -23.8963 -23.8963
    12.4564  15.1900  15.1900  16.6469  16.6469  17.2166  19.3256  19.3256
    19.3568  20.1099

          k = 0.1875 0.1875 0.3125 (  2397 PWs)   bands (ev):

   -54.1783 -52.6503 -25.6024 -25.5373 -25.5309 -23.9611 -23.9140 -23.8986
    13.3878  15.4750  15.5088  16.4050  16.4983  16.7584  19.1089  19.4331
    19.5601  19.9904

          k = 0.1875 0.1875 0.4375 (  2402 PWs)   bands (ev):

   -54.1735 -52.6486 -25.6369 -25.5480 -25.5137 -23.9863 -23.9269 -23.8916
    14.3419  15.0703  15.8555  16.1482  16.5978  16.9654  18.8982  19.0607
    19.4891  20.2952

          k = 0.1875 0.3125 0.3125 (  2401 PWs)   bands (ev):

   -54.1727 -52.6465 -25.6107 -25.5892 -25.5238 -23.9587 -23.9316 -23.9113
    14.0878  15.2715  16.0647  16.2264  16.3127  16.4772  19.2617  19.4272
    19.5262  20.2259

          k = 0.1875 0.3125 0.4375 (  2394 PWs)   bands (ev):

   -54.1687 -52.6437 -25.6439 -25.6037 -25.5129 -23.9701 -23.9462 -23.9055
    14.5479  14.9508  15.9296  16.0887  16.6178  17.0935  19.1530  19.3840
    19.4775  20.3026

          k = 0.1875 0.4375 0.4375 (  2389 PWs)   bands (ev):

   -54.1652 -52.6403 -25.6508 -25.6477 -25.5051 -23.9624 -23.9556 -23.9160
    14.4625  14.7594  15.8258  15.8610  17.5524  17.5881  19.1967  19.2283
    19.7085  20.3303

          k = 0.3125 0.3125 0.3125 (  2395 PWs)   bands (ev):

   -54.1676 -52.6420 -25.5951 -25.5807 -25.5807 -23.9558 -23.9558 -23.9407
    14.8689  15.6960  15.8405  15.8405  16.2471  16.2471  19.3692  19.3692
    19.8879  19.8879

          k = 0.3125 0.3125 0.4375 (  2394 PWs)   bands (ev):

   -54.1640 -52.6389 -25.6279 -25.5920 -25.5589 -23.9775 -23.9736 -23.9377
    15.0509  15.5285  15.6932  16.0724  16.1794  16.8449  19.2285  19.2549
    19.8028  20.2232

          k = 0.3125 0.4375 0.4375 (  2389 PWs)   bands (ev):

   -54.1606 -52.6355 -25.6191 -25.6161 -25.5559 -23.9887 -23.9849 -23.9628
    15.0705  15.5643  15.6800  15.7869  16.8413  16.9166  19.1261  19.1974
    20.0320  20.3106

          k = 0.4375 0.4375 0.4375 (  2386 PWs)   bands (ev):

   -54.1574 -52.6321 -25.5992 -25.5908 -25.5908 -24.0065 -24.0065 -23.9970
    15.4352  15.5969  15.5969  16.4584  16.5139  16.5139  19.1057  19.1057
    20.3193  20.3193

 ------ SPIN DOWN ----------


          k = 0.0625 0.0625 0.0625 (  2418 PWs)   bands (ev):

   -54.2002 -52.6571 -25.5286 -25.5286 -25.5172 -23.8755 -23.8618 -23.8618
    10.7071  14.3325  14.3325  17.2165  17.2165  17.4357  19.3696  19.3696
    20.2816  20.6788

          k = 0.0625 0.0625 0.1875 (  2408 PWs)   bands (ev):

   -54.1940 -52.6570 -25.5556 -25.5148 -25.5070 -23.9195 -23.8713 -23.8705
    11.3294  14.6367  14.6382  17.0881  17.1435  17.6573  19.0034  19.5356
    19.5859  20.0196

          k = 0.0625 0.0625 0.3125 (  2391 PWs)   bands (ev):

   -54.1853 -52.6569 -25.5913 -25.4950 -25.4949 -23.9830 -23.8849 -23.8810
    12.4488  14.9639  15.2041  17.0338  17.0517  17.8059  18.3802  19.0628
    19.2413  19.7820

          k = 0.0625 0.0625 0.4375 (  2393 PWs)   bands (ev):

   -54.1791 -52.6568 -25.6161 -25.4867 -25.4807 -24.0275 -23.8948 -23.8886
    13.7547  14.7838  15.8819  16.8194  17.1468  17.7088  17.8248  18.7404
    19.0689  19.9267

          k = 0.0625 0.1875 0.1875 (  2395 PWs)   bands (ev):

   -54.1886 -52.6559 -25.5703 -25.5272 -25.5013 -23.9393 -23.8851 -23.8771
    11.9026  14.8288  15.0026  16.8097  16.9719  17.7397  19.0898  19.1606
    19.4469  19.6286

          k = 0.0625 0.1875 0.3125 (  2393 PWs)   bands (ev):

   -54.1810 -52.6544 -25.6052 -25.5350 -25.4889 -23.9749 -23.8991 -23.8836
    12.8967  15.0225  15.5455  16.6238  16.8345  17.3831  18.7893  19.0677
    19.3986  19.6780

          k = 0.0625 0.1875 0.4375 (  2401 PWs)   bands (ev):

   -54.1756 -52.6534 -25.6322 -25.5405 -25.4783 -24.0011 -23.9085 -23.8867
    13.9829  14.7841  16.0500  16.5174  16.8764  17.0523  18.5080  18.8806
    19.6609  20.1868

          k = 0.0625 0.3125 0.3125 (  2389 PWs)   bands (ev):

   -54.1749 -52.6510 -25.6304 -25.5867 -25.4794 -23.9680 -23.9160 -23.8855
    13.5458  14.8211  16.2499  16.3251  16.7889  16.9537  18.8822  19.2254
    19.5658  20.0102

          k = 0.0625 0.3125 0.4375 (  2397 PWs)   bands (ev):

   -54.1706 -52.6486 -25.6558 -25.6159 -25.4723 -23.9671 -23.9256 -23.8850
    14.0768  14.4837  16.1706  16.3629  16.9221  17.4411  18.9895  19.2109
    19.8029  20.6568

          k = 0.0625 0.4375 0.4375 (  2400 PWs)   bands (ev):

   -54.1672 -52.6451 -25.6737 -25.6666 -25.4680 -23.9454 -23.9366 -23.8836
    14.0328  14.2259  15.9431  16.0074  18.0462  18.4036  19.2047  19.4967
    19.5176  20.5617

          k = 0.1875 0.1875 0.1875 (  2388 PWs)   bands (ev):

   -54.1838 -52.6542 -25.5538 -25.5538 -25.5199 -23.9381 -23.8973 -23.8973
    12.4564  15.1902  15.1902  16.6473  16.6473  17.2171  19.3255  19.3255
    19.3563  20.1096

          k = 0.1875 0.1875 0.3125 (  2397 PWs)   bands (ev):

   -54.1770 -52.6517 -25.6014 -25.5363 -25.5299 -23.9621 -23.9151 -23.8996
    13.3878  15.4752  15.5090  16.4053  16.4985  16.7587  19.1087  19.4328
    19.5601  19.9901

          k = 0.1875 0.1875 0.4375 (  2402 PWs)   bands (ev):

   -54.1722 -52.6500 -25.6359 -25.5470 -25.5127 -23.9873 -23.9280 -23.8927
    14.3420  15.0704  15.8558  16.1485  16.5981  16.9654  18.8980  19.0604
    19.4896  20.2946

          k = 0.1875 0.3125 0.3125 (  2401 PWs)   bands (ev):

   -54.1713 -52.6479 -25.6097 -25.5882 -25.5228 -23.9597 -23.9326 -23.9124
    14.0879  15.2716  16.0651  16.2268  16.3128  16.4774  19.2617  19.4269
    19.5263  20.2255

          k = 0.1875 0.3125 0.4375 (  2394 PWs)   bands (ev):

   -54.1673 -52.6451 -25.6429 -25.6027 -25.5119 -23.9711 -23.9472 -23.9065
    14.5481  14.9509  15.9299  16.0890  16.6181  17.0934  19.1531  19.3839
    19.4776  20.3019

          k = 0.1875 0.4375 0.4375 (  2389 PWs)   bands (ev):

   -54.1639 -52.6417 -25.6499 -25.6467 -25.5041 -23.9634 -23.9566 -23.9171
    14.4628  14.7594  15.8261  15.8613  17.5524  17.5881  19.1970  19.2289
    19.7081  20.3295

          k = 0.3125 0.3125 0.3125 (  2395 PWs)   bands (ev):

   -54.1662 -52.6434 -25.5942 -25.5797 -25.5797 -23.9569 -23.9569 -23.9417
    14.8691  15.6960  15.8408  15.8408  16.2472  16.2472  19.3694  19.3694
    19.8874  19.8874

          k = 0.3125 0.3125 0.4375 (  2394 PWs)   bands (ev):

   -54.1626 -52.6403 -25.6269 -25.5910 -25.5578 -23.9786 -23.9747 -23.9387
    15.0513  15.5284  15.6936  16.0728  16.1794  16.8447  19.2288  19.2555
    19.8022  20.2224

          k = 0.3125 0.4375 0.4375 (  2389 PWs)   bands (ev):

   -54.1593 -52.6369 -25.6182 -25.6151 -25.5548 -23.9897 -23.9860 -23.9639
    15.0709  15.5644  15.6804  15.7871  16.8410  16.9165  19.1269  19.1979
    20.0313  20.3097

          k = 0.4375 0.4375 0.4375 (  2386 PWs)   bands (ev):

   -54.1560 -52.6335 -25.5982 -25.5898 -25.5898 -24.0076 -24.0076 -23.9980
    15.4356  15.5974  15.5974  16.4581  16.5136  16.5136  19.1065  19.1065
    20.3184  20.3184

     the Fermi energy is    18.1995 ev

!    total energy              =    -349.98987521 Ry
     Harris-Foulkes estimate   =    -349.98987552 Ry
     estimated scf accuracy    <       0.00000050 Ry

     The total energy is the sum of the following terms:

     one-electron contribution =    -121.61182378 Ry
     hartree contribution      =      75.61519622 Ry
     xc contribution           =     -44.57351395 Ry
     ewald contribution        =    -259.42040003 Ry
     smearing contrib. (-TS)   =       0.00066633 Ry

     total magnetization       =     0.00 Bohr mag/cell
     absolute magnetization    =     3.06 Bohr mag/cell

     convergence has been achieved in   9 iterations

     Writing output data file cr-90.save/

     init_run     :      0.69s CPU      0.70s WALL (       1 calls)
     electrons    :     13.45s CPU     13.94s WALL (       1 calls)

     Called by init_run:
     wfcinit      :      0.41s CPU      0.43s WALL (       1 calls)
     potinit      :      0.03s CPU      0.03s WALL (       1 calls)
     hinit0       :      0.21s CPU      0.21s WALL (       1 calls)

     Called by electrons:
     c_bands      :     11.34s CPU     11.75s WALL (      10 calls)
     sum_band     :      1.80s CPU      1.87s WALL (      10 calls)
     v_of_rho     :      0.14s CPU      0.14s WALL (      10 calls)
     newd         :      0.17s CPU      0.19s WALL (      10 calls)
     mix_rho      :      0.01s CPU      0.01s WALL (      10 calls)

     Called by c_bands:
     init_us_2    :      0.12s CPU      0.12s WALL (     840 calls)
     cegterg      :     10.84s CPU     11.24s WALL (     400 calls)

     Called by sum_band:
     sum_band:bec :      0.01s CPU      0.01s WALL (     400 calls)
     addusdens    :      0.27s CPU      0.27s WALL (      10 calls)

     Called by *egterg:
     h_psi        :      7.43s CPU      7.72s WALL (    1775 calls)
     s_psi        :      0.45s CPU      0.47s WALL (    1775 calls)
     g_psi        :      0.04s CPU      0.04s WALL (    1335 calls)
     cdiaghg      :      1.01s CPU      1.04s WALL (    1695 calls)

     Called by h_psi:
     h_psi:pot    :      7.41s CPU      7.70s WALL (    1775 calls)
     h_psi:calbec :      0.68s CPU      0.71s WALL (    1775 calls)
     vloc_psi     :      6.28s CPU      6.52s WALL (    1775 calls)
     add_vuspsi   :      0.45s CPU      0.47s WALL (    1775 calls)

     General routines
     calbec       :      0.91s CPU      0.95s WALL (    2175 calls)
     fft          :      0.07s CPU      0.07s WALL (     210 calls)
     ffts         :      0.00s CPU      0.00s WALL (      20 calls)
     fftw         :      6.91s CPU      7.18s WALL (   47064 calls)

     Parallel routines
     fft_scatt_xy :      0.44s CPU      0.45s WALL (   47294 calls)
     fft_scatt_yz :      3.04s CPU      3.16s WALL (   47294 calls)

     PWSCF        :     15.54s CPU     16.14s WALL


   This run was terminated on:  17:10:35   9Mar2022            

=------------------------------------------------------------------------------=
   JOB DONE.
=------------------------------------------------------------------------------=
