
     Program PWSCF v.6.4.1 starts on 21Aug2022 at 13: 5:14 

     This program is part of the open-source Quantum ESPRESSO suite
     for quantum simulation of materials; please cite
         "P. Giannozzi et al., J. Phys.:Condens. Matter 21 395502 (2009);
         "P. Giannozzi et al., J. Phys.:Condens. Matter 29 465901 (2017);
          URL http://www.quantum-espresso.org", 
     in publications or presentations arising from this work. More details at
     http://www.quantum-espresso.org/quote

     Parallel version (MPI), running on     6 processors

     MPI processes distributed on     1 nodes
     R & G space division:  proc/nbgrp/npool/nimage =       6
     Reading input from distance-3.0.in

     Current dimensions of program PWSCF are:
     Max number of different atomic species (ntypx) = 10
     Max number of k-points (npk) =  40000
     Max angular momentum in pseudopotentials (lmaxx) =  3

     IMPORTANT: XC functional enforced from input :
     Exchange-correlation      = RVV10 ( 1  4 13  4 3 0)
     Any further DFT definition will be discarded
     Please, verify this is what you really want

               file H.pbe-rrkjus.UPF: wavefunction(s)  1S renormalized
               file V.pbe-spnl-rrkjus_psl.1.0.0.UPF: wavefunction(s)  3P 3D renormalized

     Subspace diagonalization in iterative solution of the eigenvalue problem:
     a serial algorithm will be used


     Parallelization info
     --------------------
     sticks:   dense  smooth     PW     G-vecs:    dense   smooth      PW
     Min        3051    1746    432               270999   117096   14629
     Max        3053    1747    437               271001   117099   14630
     Sum       18313   10477   2611              1626001   702581   87777



     bravais-lattice index     =            4
     lattice parameter (alat)  =      23.2937  a.u.
     unit-cell volume          =    8879.8548 (a.u.)^3
     number of atoms/cell      =           52
     number of atomic types    =            3
     number of electrons       =       211.00
     number of Kohn-Sham states=          127
     kinetic-energy cutoff     =      70.0000  Ry
     charge density cutoff     =     490.0000  Ry
     convergence threshold     =      1.0E-06
     mixing beta               =       0.7000
     number of iterations used =            8  plain     mixing
     Exchange-correlation      = RVV10 ( 1  4 13  4 3 0)

     celldm(1)=  23.293684  celldm(2)=   0.000000  celldm(3)=   0.811261
     celldm(4)=   0.000000  celldm(5)=   0.000000  celldm(6)=   0.000000

     crystal axes: (cart. coord. in units of alat)
               a(1) = (   1.000000   0.000000   0.000000 )  
               a(2) = (  -0.500000   0.866025   0.000000 )  
               a(3) = (   0.000000   0.000000   0.811261 )  

     reciprocal axes: (cart. coord. in units 2 pi/alat)
               b(1) = (  1.000000  0.577350 -0.000000 )  
               b(2) = (  0.000000  1.154701  0.000000 )  
               b(3) = (  0.000000 -0.000000  1.232649 )  


     PseudoPot. # 1 for H  read from file:
     /home/cristian/Escritorio/Proyecto_Grafeno/pseudopotenciales/H.pbe-rrkjus.UPF
     MD5 check sum: 7cc9d459525c9a0585f487a71c3c9563
     Pseudo is Ultrasoft, Zval =  1.0
     Generated by new atomic code, or converted to UPF format
     Using radial grid of 1061 points,  2 beta functions with: 
                l(1) =   0
                l(2) =   0
     Q(r) pseudized with 0 coefficients 


     PseudoPot. # 2 for C  read from file:
     /home/cristian/Escritorio/Proyecto_Grafeno/pseudopotenciales/C.pbe-n-rrkjus_psl.1.0.0.UPF
     MD5 check sum: 1fdd950c42eb37d8afe3dd2f8d12311e
     Pseudo is Ultrasoft + core correction, Zval =  4.0
     Generated using "atomic" code by A. Dal Corso v.6.3MaX
     Using radial grid of 1073 points,  4 beta functions with: 
                l(1) =   0
                l(2) =   0
                l(3) =   1
                l(4) =   1
     Q(r) pseudized with 0 coefficients 


     PseudoPot. # 3 for V  read from file:
     /home/cristian/Escritorio/Proyecto_Grafeno/pseudopotenciales/V.pbe-spnl-rrkjus_psl.1.0.0.UPF
     MD5 check sum: 79b3eb63147daf0b665d9f1bcc691206
     Pseudo is Ultrasoft + core correction, Zval = 13.0
     Generated using "atomic" code by A. Dal Corso v.6.2.2
     Using radial grid of 1181 points,  6 beta functions with: 
                l(1) =   0
                l(2) =   0
                l(3) =   1
                l(4) =   1
                l(5) =   2
                l(6) =   2
     Q(r) pseudized with 0 coefficients 


     vdW kernel table read from file rVV10_kernel_table
     MD5 check sum: b8e2538accc0c0b3206b45ba4daaba6c

     atomic species   valence    mass     pseudopotential
        H              1.00     1.00794     H ( 1.00)
        C              4.00    12.01070     C ( 1.00)
        V             13.00    50.94150     V ( 1.00)

     Starting magnetic structure 
     atomic species   magnetization
        H            0.500
        C            0.300
        V            0.800

      2 Sym. Ops. (no inversion) found


                                    s                        frac. trans.

      isym =  1     identity                                     

 cryst.   s( 1) = (     1          0          0      )
                  (     0          1          0      )
                  (     0          0          1      )

 cart.    s( 1) = (  1.0000000  0.0000000  0.0000000 )
                  (  0.0000000  1.0000000  0.0000000 )
                  (  0.0000000  0.0000000  1.0000000 )


      isym =  2     inv. 180 deg rotation - cryst. axis [1,1,0]  

 cryst.   s( 2) = (     0         -1          0      )
                  (    -1          0          0      )
                  (     0          0          1      )

 cart.    s( 2) = (  0.5000000 -0.8660254  0.0000000 )
                  ( -0.8660254 -0.5000000  0.0000000 )
                  (  0.0000000  0.0000000  1.0000000 )


     point group C_s (m)    
     there are  2 classes
     the character table:

       E     s    
A'     1.00  1.00
A''    1.00 -1.00

     the symmetry operations in each class and the name of the first element:

     E        1
          identity                                               
     s        2
          inv. 180 deg rotation - cryst. axis [1,1,0]            

   Cartesian axes

     site n.     atom                  positions (alat units)
         1           H   tau(   1) = (   0.2000000   0.4618802   0.2433783  )
         2           H   tau(   2) = (   0.2000000   0.4618802   0.3043910  )
         3           C   tau(   3) = (   0.0000000   0.0000000   0.0000000  )
         4           C   tau(   4) = (   0.0000000   0.1154701   0.0000000  )
         5           C   tau(   5) = (  -0.1000000   0.1732051   0.0000000  )
         6           C   tau(   6) = (  -0.1000000   0.2886751   0.0000000  )
         7           C   tau(   7) = (  -0.2000000   0.3464102   0.0000000  )
         8           C   tau(   8) = (  -0.2000000   0.4618802   0.0000000  )
         9           C   tau(   9) = (  -0.3000000   0.5196152   0.0000000  )
        10           C   tau(  10) = (  -0.3000000   0.6350853   0.0000000  )
        11           C   tau(  11) = (  -0.4000000   0.6928203   0.0000000  )
        12           C   tau(  12) = (  -0.4000000   0.8082904   0.0000000  )
        13           C   tau(  13) = (   0.2000000   0.0000000   0.0000000  )
        14           C   tau(  14) = (   0.2000000   0.1154701   0.0000000  )
        15           C   tau(  15) = (   0.1000000   0.1732051   0.0000000  )
        16           C   tau(  16) = (   0.1000000   0.2886751   0.0000000  )
        17           C   tau(  17) = (   0.0000000   0.3464102   0.0000000  )
        18           C   tau(  18) = (   0.0000000   0.4618802   0.0000000  )
        19           C   tau(  19) = (  -0.1000000   0.5196152   0.0000000  )
        20           C   tau(  20) = (  -0.1000000   0.6350853   0.0000000  )
        21           C   tau(  21) = (  -0.2000000   0.6928203   0.0000000  )
        22           C   tau(  22) = (  -0.2000000   0.8082904   0.0000000  )
        23           C   tau(  23) = (   0.4000000   0.0000000   0.0000000  )
        24           C   tau(  24) = (   0.4000000   0.1154701   0.0000000  )
        25           C   tau(  25) = (   0.3000000   0.1732051   0.0000000  )
        26           C   tau(  26) = (   0.3000000   0.2886751   0.0000000  )
        27           C   tau(  27) = (   0.2000000   0.3464102   0.0000000  )
        28           V   tau(  28) = (   0.2000000   0.4618802   0.0000000  )
        29           C   tau(  29) = (   0.1000000   0.5196152   0.0000000  )
        30           C   tau(  30) = (   0.1000000   0.6350853   0.0000000  )
        31           C   tau(  31) = (   0.0000000   0.6928203   0.0000000  )
        32           C   tau(  32) = (   0.0000000   0.8082904   0.0000000  )
        33           C   tau(  33) = (   0.6000000   0.0000000   0.0000000  )
        34           C   tau(  34) = (   0.6000000   0.1154701   0.0000000  )
        35           C   tau(  35) = (   0.5000000   0.1732051   0.0000000  )
        36           C   tau(  36) = (   0.5000000   0.2886751   0.0000000  )
        37           C   tau(  37) = (   0.4000000   0.3464102   0.0000000  )
        38           C   tau(  38) = (   0.4000000   0.4618802   0.0000000  )
        39           C   tau(  39) = (   0.3000000   0.5196152   0.0000000  )
        40           C   tau(  40) = (   0.3000000   0.6350853   0.0000000  )
        41           C   tau(  41) = (   0.2000000   0.6928203   0.0000000  )
        42           C   tau(  42) = (   0.2000000   0.8082904   0.0000000  )
        43           C   tau(  43) = (   0.8000000   0.0000000   0.0000000  )
        44           C   tau(  44) = (   0.8000000   0.1154701   0.0000000  )
        45           C   tau(  45) = (   0.7000000   0.1732051   0.0000000  )
        46           C   tau(  46) = (   0.7000000   0.2886751   0.0000000  )
        47           C   tau(  47) = (   0.6000000   0.3464102   0.0000000  )
        48           C   tau(  48) = (   0.6000000   0.4618802   0.0000000  )
        49           C   tau(  49) = (   0.5000000   0.5196152   0.0000000  )
        50           C   tau(  50) = (   0.5000000   0.6350853   0.0000000  )
        51           C   tau(  51) = (   0.4000000   0.6928203   0.0000000  )
        52           C   tau(  52) = (   0.4000000   0.8082904   0.0000000  )

   Crystallographic axes

     site n.     atom                  positions (cryst. coord.)
         1           H   tau(   1) = (  0.4666667  0.5333333  0.3000000  )
         2           H   tau(   2) = (  0.4666667  0.5333333  0.3752072  )
         3           C   tau(   3) = (  0.0000000  0.0000000  0.0000000  )
         4           C   tau(   4) = (  0.0666667  0.1333333  0.0000000  )
         5           C   tau(   5) = (  0.0000000  0.2000000  0.0000000  )
         6           C   tau(   6) = (  0.0666667  0.3333333  0.0000000  )
         7           C   tau(   7) = (  0.0000000  0.4000000  0.0000000  )
         8           C   tau(   8) = (  0.0666667  0.5333333  0.0000000  )
         9           C   tau(   9) = (  0.0000000  0.6000000  0.0000000  )
        10           C   tau(  10) = (  0.0666667  0.7333333  0.0000000  )
        11           C   tau(  11) = (  0.0000000  0.8000000  0.0000000  )
        12           C   tau(  12) = (  0.0666667  0.9333333  0.0000000  )
        13           C   tau(  13) = (  0.2000000  0.0000000  0.0000000  )
        14           C   tau(  14) = (  0.2666667  0.1333333  0.0000000  )
        15           C   tau(  15) = (  0.2000000  0.2000000  0.0000000  )
        16           C   tau(  16) = (  0.2666667  0.3333333  0.0000000  )
        17           C   tau(  17) = (  0.2000000  0.4000000  0.0000000  )
        18           C   tau(  18) = (  0.2666667  0.5333333  0.0000000  )
        19           C   tau(  19) = (  0.2000000  0.6000000  0.0000000  )
        20           C   tau(  20) = (  0.2666667  0.7333333  0.0000000  )
        21           C   tau(  21) = (  0.2000000  0.8000000  0.0000000  )
        22           C   tau(  22) = (  0.2666667  0.9333333  0.0000000  )
        23           C   tau(  23) = (  0.4000000  0.0000000  0.0000000  )
        24           C   tau(  24) = (  0.4666667  0.1333333  0.0000000  )
        25           C   tau(  25) = (  0.4000000  0.2000000  0.0000000  )
        26           C   tau(  26) = (  0.4666667  0.3333333  0.0000000  )
        27           C   tau(  27) = (  0.4000000  0.4000000  0.0000000  )
        28           V   tau(  28) = (  0.4666667  0.5333333  0.0000000  )
        29           C   tau(  29) = (  0.4000000  0.6000000  0.0000000  )
        30           C   tau(  30) = (  0.4666667  0.7333333  0.0000000  )
        31           C   tau(  31) = (  0.4000000  0.8000000  0.0000000  )
        32           C   tau(  32) = (  0.4666667  0.9333333  0.0000000  )
        33           C   tau(  33) = (  0.6000000  0.0000000  0.0000000  )
        34           C   tau(  34) = (  0.6666667  0.1333333  0.0000000  )
        35           C   tau(  35) = (  0.6000000  0.2000000  0.0000000  )
        36           C   tau(  36) = (  0.6666667  0.3333333  0.0000000  )
        37           C   tau(  37) = (  0.6000000  0.4000000  0.0000000  )
        38           C   tau(  38) = (  0.6666667  0.5333333  0.0000000  )
        39           C   tau(  39) = (  0.6000000  0.6000000  0.0000000  )
        40           C   tau(  40) = (  0.6666667  0.7333333  0.0000000  )
        41           C   tau(  41) = (  0.6000000  0.8000000  0.0000000  )
        42           C   tau(  42) = (  0.6666667  0.9333333  0.0000000  )
        43           C   tau(  43) = (  0.8000000  0.0000000  0.0000000  )
        44           C   tau(  44) = (  0.8666667  0.1333333  0.0000000  )
        45           C   tau(  45) = (  0.8000000  0.2000000  0.0000000  )
        46           C   tau(  46) = (  0.8666667  0.3333333  0.0000000  )
        47           C   tau(  47) = (  0.8000000  0.4000000  0.0000000  )
        48           C   tau(  48) = (  0.8666667  0.5333333  0.0000000  )
        49           C   tau(  49) = (  0.8000000  0.6000000  0.0000000  )
        50           C   tau(  50) = (  0.8666667  0.7333333  0.0000000  )
        51           C   tau(  51) = (  0.8000000  0.8000000  0.0000000  )
        52           C   tau(  52) = (  0.8666667  0.9333333  0.0000000  )

     number of k points=     1  Marzari-Vanderbilt smearing, width (Ry)=  0.0010
                       cart. coord. in units 2pi/alat
        k(    1) = (   0.0000000   0.0000000   0.0000000), wk =   1.0000000

                       cryst. coord.
        k(    1) = (   0.0000000   0.0000000   0.0000000), wk =   1.0000000

     Dense  grid:  1626001 G-vectors     FFT dimensions: ( 180, 180, 135)

     Smooth grid:   702581 G-vectors     FFT dimensions: ( 125, 125, 108)

     Dynamical RAM for                 wfc:      28.36 MB

     Dynamical RAM for     wfc (w. buffer):      85.09 MB

     Dynamical RAM for           str. fact:      12.41 MB

     Dynamical RAM for           local pot:       0.00 MB

     Dynamical RAM for          nlocal pot:      92.46 MB

     Dynamical RAM for                qrad:      19.73 MB

     Dynamical RAM for          rho,v,vnew:      58.92 MB

     Dynamical RAM for               rhoin:      19.64 MB

     Dynamical RAM for            rho*nmix:     132.32 MB

     Dynamical RAM for           G-vectors:      16.40 MB

     Dynamical RAM for          h,s,v(r/c):      11.81 MB

     Dynamical RAM for          <psi|beta>:       0.80 MB

     Dynamical RAM for                 psi:     113.46 MB

     Dynamical RAM for                hpsi:     113.46 MB

     Dynamical RAM for                spsi:     113.46 MB

     Dynamical RAM for      wfcinit/wfcrot:      93.90 MB

     Dynamical RAM for           addusdens:     975.89 MB

     Estimated static dynamical RAM per process >     487.63 MB

     Estimated max dynamical RAM per process >       1.43 GB

     Estimated total dynamical RAM >       8.58 GB
     Generating pointlists ...
     new r_m :   0.0252 (alat units)  0.5862 (a.u.) for type    1
     new r_m :   0.0476 (alat units)  1.1095 (a.u.) for type    2
     new r_m :   0.0476 (alat units)  1.1095 (a.u.) for type    3

     Check: negative core charge=   -0.000002

     Initial potential from superposition of free atoms

     starting charge  210.80465, renormalised to  211.00000

     negative rho (up, down):  1.138E-04 1.442E-02


---------------------------------------------------------------------------------
Carrying out rVV10 run using the following parameters:
Nqs =      20    Nr_points =    1024   r_max =   100.000
b_value =  6.30000    beta =  0.00901
     q_mesh =  0.00010000  0.00030000  0.00058939  0.00100810
               0.00161396  0.00249058  0.00375900  0.00559430
               0.00824984  0.01209221  0.01765183  0.02569619
               0.03733578  0.05417739  0.07854596  0.11380545
               0.16482331  0.23864234  0.34545298  0.50000000

Gradients computed in Reciprocal space

---------------------------------------------------------------------------------


     Starting wfcs are  208 randomized atomic wfcs

     total cpu time spent up to now is       78.9 secs

     Self-consistent Calculation

     iteration #  1     ecut=    70.00 Ry     beta= 0.70
     Davidson diagonalization with overlap
     ethr =  1.00E-02,  avg # of iterations =  3.0

     negative rho (up, down):  2.237E-04 1.171E-02

     total cpu time spent up to now is      204.0 secs

     total energy              =    -753.35991736 Ry
     Harris-Foulkes estimate   =    -756.90329205 Ry
     estimated scf accuracy    <      11.34279521 Ry

     total magnetization       =     5.00 Bohr mag/cell
     absolute magnetization    =     6.01 Bohr mag/cell

     iteration #  2     ecut=    70.00 Ry     beta= 0.70
     Davidson diagonalization with overlap
     ethr =  5.38E-03,  avg # of iterations =  6.0

     negative rho (up, down):  3.181E-03 1.659E-01

     total cpu time spent up to now is      319.2 secs

     total energy              =    -746.99547704 Ry
     Harris-Foulkes estimate   =    -766.61627896 Ry
     estimated scf accuracy    <      67.79010214 Ry

     total magnetization       =     3.00 Bohr mag/cell
     absolute magnetization    =     3.36 Bohr mag/cell

     iteration #  3     ecut=    70.00 Ry     beta= 0.70
     Davidson diagonalization with overlap
     ethr =  5.38E-03,  avg # of iterations =  5.0

     negative rho (up, down):  1.249E-03 1.981E-02

     total cpu time spent up to now is      484.5 secs

     total energy              =    -755.78366553 Ry
     Harris-Foulkes estimate   =    -758.22063616 Ry
     estimated scf accuracy    <      11.57587042 Ry

     total magnetization       =     5.00 Bohr mag/cell
     absolute magnetization    =     5.77 Bohr mag/cell

     iteration #  4     ecut=    70.00 Ry     beta= 0.70
     Davidson diagonalization with overlap
     ethr =  5.38E-03,  avg # of iterations =  3.5

     negative rho (up, down):  4.157E-02 1.760E-02

     total cpu time spent up to now is      575.7 secs

     total energy              =    -757.11568812 Ry
     Harris-Foulkes estimate   =    -757.45930216 Ry
     estimated scf accuracy    <       1.06183527 Ry

     total magnetization       =     1.00 Bohr mag/cell
     absolute magnetization    =     1.69 Bohr mag/cell

     iteration #  5     ecut=    70.00 Ry     beta= 0.70
     Davidson diagonalization with overlap
     ethr =  5.03E-04,  avg # of iterations = 10.5

     negative rho (up, down):  2.182E-02 1.822E-02

     total cpu time spent up to now is      688.6 secs

     total energy              =    -757.29699099 Ry
     Harris-Foulkes estimate   =    -757.28386288 Ry
     estimated scf accuracy    <       0.09263161 Ry

     total magnetization       =     1.00 Bohr mag/cell
     absolute magnetization    =     1.49 Bohr mag/cell

     iteration #  6     ecut=    70.00 Ry     beta= 0.70
     Davidson diagonalization with overlap
     ethr =  4.39E-05,  avg # of iterations =  5.5

     negative rho (up, down):  4.007E-02 9.277E-03

     total cpu time spent up to now is      804.4 secs

     total energy              =    -757.28867097 Ry
     Harris-Foulkes estimate   =    -757.33714864 Ry
     estimated scf accuracy    <       0.13875165 Ry

     total magnetization       =     1.00 Bohr mag/cell
     absolute magnetization    =     1.41 Bohr mag/cell

     iteration #  7     ecut=    70.00 Ry     beta= 0.70
     Davidson diagonalization with overlap
     ethr =  4.39E-05,  avg # of iterations =  4.0

     negative rho (up, down):  3.362E-02 1.466E-02

     total cpu time spent up to now is      914.1 secs

     total energy              =    -757.31401847 Ry
     Harris-Foulkes estimate   =    -757.33238183 Ry
     estimated scf accuracy    <       0.08716359 Ry

     total magnetization       =     1.00 Bohr mag/cell
     absolute magnetization    =     1.37 Bohr mag/cell

     iteration #  8     ecut=    70.00 Ry     beta= 0.70
     Davidson diagonalization with overlap
     ethr =  4.13E-05,  avg # of iterations =  3.0

     negative rho (up, down):  3.085E-02 2.240E-02

     total cpu time spent up to now is     1011.1 secs

     total energy              =    -757.32477671 Ry
     Harris-Foulkes estimate   =    -757.33317840 Ry
     estimated scf accuracy    <       0.05197608 Ry

     total magnetization       =     1.00 Bohr mag/cell
     absolute magnetization    =     1.40 Bohr mag/cell

     iteration #  9     ecut=    70.00 Ry     beta= 0.70
     Davidson diagonalization with overlap
     ethr =  2.46E-05,  avg # of iterations =  3.0

     negative rho (up, down):  3.406E-02 1.696E-02

     total cpu time spent up to now is     1106.7 secs

     total energy              =    -757.32993096 Ry
     Harris-Foulkes estimate   =    -757.33111917 Ry
     estimated scf accuracy    <       0.00789415 Ry

     total magnetization       =     1.00 Bohr mag/cell
     absolute magnetization    =     1.40 Bohr mag/cell

     iteration # 10     ecut=    70.00 Ry     beta= 0.70
     Davidson diagonalization with overlap
     ethr =  3.74E-06,  avg # of iterations =  3.0

     negative rho (up, down):  3.369E-02 1.515E-02

     total cpu time spent up to now is     1199.9 secs

     total energy              =    -757.33124766 Ry
     Harris-Foulkes estimate   =    -757.33074249 Ry
     estimated scf accuracy    <       0.00126008 Ry

     total magnetization       =     1.00 Bohr mag/cell
     absolute magnetization    =     1.42 Bohr mag/cell

     iteration # 11     ecut=    70.00 Ry     beta= 0.70
     Davidson diagonalization with overlap
     ethr =  5.97E-07,  avg # of iterations =  3.5

     negative rho (up, down):  3.320E-02 3.431E-03

     total cpu time spent up to now is     1301.4 secs

     total energy              =    -757.33240667 Ry
     Harris-Foulkes estimate   =    -757.33150393 Ry
     estimated scf accuracy    <       0.00035814 Ry

     total magnetization       =     1.00 Bohr mag/cell
     absolute magnetization    =     1.44 Bohr mag/cell

     iteration # 12     ecut=    70.00 Ry     beta= 0.70
     Davidson diagonalization with overlap
     ethr =  1.70E-07,  avg # of iterations =  3.5

     negative rho (up, down):  3.374E-02 3.102E-03

     total cpu time spent up to now is     1404.4 secs

     total energy              =    -757.33246932 Ry
     Harris-Foulkes estimate   =    -757.33250241 Ry
     estimated scf accuracy    <       0.00011699 Ry

     total magnetization       =     1.00 Bohr mag/cell
     absolute magnetization    =     1.47 Bohr mag/cell

     iteration # 13     ecut=    70.00 Ry     beta= 0.70
     Davidson diagonalization with overlap
     ethr =  5.54E-08,  avg # of iterations =  3.0

     negative rho (up, down):  3.378E-02 3.714E-03

     total cpu time spent up to now is     1505.5 secs

     total energy              =    -757.33248117 Ry
     Harris-Foulkes estimate   =    -757.33250466 Ry
     estimated scf accuracy    <       0.00003919 Ry

     total magnetization       =     1.00 Bohr mag/cell
     absolute magnetization    =     1.48 Bohr mag/cell

     iteration # 14     ecut=    70.00 Ry     beta= 0.70
     Davidson diagonalization with overlap
     ethr =  1.86E-08,  avg # of iterations =  3.5

     negative rho (up, down):  3.397E-02 2.487E-03

     total cpu time spent up to now is     1606.7 secs

     total energy              =    -757.33250037 Ry
     Harris-Foulkes estimate   =    -757.33249742 Ry
     estimated scf accuracy    <       0.00003892 Ry

     total magnetization       =     1.00 Bohr mag/cell
     absolute magnetization    =     1.49 Bohr mag/cell

     iteration # 15     ecut=    70.00 Ry     beta= 0.70
     Davidson diagonalization with overlap
     ethr =  1.84E-08,  avg # of iterations =  3.0

     negative rho (up, down):  3.399E-02 2.120E-03

     total cpu time spent up to now is     1698.9 secs

     total energy              =    -757.33250952 Ry
     Harris-Foulkes estimate   =    -757.33250691 Ry
     estimated scf accuracy    <       0.00000287 Ry

     total magnetization       =     1.00 Bohr mag/cell
     absolute magnetization    =     1.50 Bohr mag/cell

     iteration # 16     ecut=    70.00 Ry     beta= 0.70
     Davidson diagonalization with overlap
     ethr =  1.36E-09,  avg # of iterations =  3.0

     negative rho (up, down):  3.402E-02 2.495E-03

     total cpu time spent up to now is     1809.3 secs

     total energy              =    -757.33250997 Ry
     Harris-Foulkes estimate   =    -757.33251048 Ry
     estimated scf accuracy    <       0.00000147 Ry

     total magnetization       =     1.00 Bohr mag/cell
     absolute magnetization    =     1.51 Bohr mag/cell

     iteration # 17     ecut=    70.00 Ry     beta= 0.70
     Davidson diagonalization with overlap
     ethr =  6.95E-10,  avg # of iterations =  3.0

     negative rho (up, down):  3.399E-02 1.817E-03

     Magnetic moment per site:
     atom:    1    charge:    0.2127    magn:   -0.0000    constr:    0.0000
     atom:    2    charge:    0.2090    magn:    0.0000    constr:    0.0000
     atom:    3    charge:    1.7176    magn:   -0.0065    constr:    0.0000
     atom:    4    charge:    1.7157    magn:    0.0092    constr:    0.0000
     atom:    5    charge:    1.7183    magn:   -0.0040    constr:    0.0000
     atom:    6    charge:    1.7141    magn:    0.0024    constr:    0.0000
     atom:    7    charge:    1.7183    magn:   -0.0039    constr:    0.0000
     atom:    8    charge:    1.7157    magn:    0.0090    constr:    0.0000
     atom:    9    charge:    1.7177    magn:   -0.0064    constr:    0.0000
     atom:   10    charge:    1.7144    magn:    0.0303    constr:    0.0000
     atom:   11    charge:    1.7186    magn:   -0.0085    constr:    0.0000
     atom:   12    charge:    1.7145    magn:    0.0311    constr:    0.0000
     atom:   13    charge:    1.7186    magn:   -0.0085    constr:    0.0000
     atom:   14    charge:    1.7145    magn:    0.0226    constr:    0.0000
     atom:   15    charge:    1.7169    magn:   -0.0076    constr:    0.0000
     atom:   16    charge:    1.7111    magn:    0.0298    constr:    0.0000
     atom:   17    charge:    1.7269    magn:   -0.0051    constr:    0.0000
     atom:   18    charge:    1.7111    magn:    0.0300    constr:    0.0000
     atom:   19    charge:    1.7169    magn:   -0.0076    constr:    0.0000
     atom:   20    charge:    1.7146    magn:    0.0232    constr:    0.0000
     atom:   21    charge:    1.7186    magn:   -0.0085    constr:    0.0000
     atom:   22    charge:    1.7144    magn:    0.0303    constr:    0.0000
     atom:   23    charge:    1.7177    magn:   -0.0064    constr:    0.0000
     atom:   24    charge:    1.7157    magn:    0.0090    constr:    0.0000
     atom:   25    charge:    1.7169    magn:   -0.0075    constr:    0.0000
     atom:   26    charge:    1.7110    magn:    0.0289    constr:    0.0000
     atom:   27    charge:    1.9148    magn:   -0.0004    constr:    0.0000
     atom:   28    charge:    7.8612    magn:    0.1020    constr:    0.0000
     atom:   29    charge:    1.9148    magn:   -0.0003    constr:    0.0000
     atom:   30    charge:    1.7111    magn:    0.0300    constr:    0.0000
     atom:   31    charge:    1.7169    magn:   -0.0076    constr:    0.0000
     atom:   32    charge:    1.7157    magn:    0.0090    constr:    0.0000
     atom:   33    charge:    1.7183    magn:   -0.0039    constr:    0.0000
     atom:   34    charge:    1.7138    magn:    0.0065    constr:    0.0000
     atom:   35    charge:    1.7182    magn:   -0.0039    constr:    0.0000
     atom:   36    charge:    1.7140    magn:    0.0023    constr:    0.0000
     atom:   37    charge:    1.7269    magn:   -0.0049    constr:    0.0000
     atom:   38    charge:    1.7110    magn:    0.0289    constr:    0.0000
     atom:   39    charge:    1.9148    magn:   -0.0004    constr:    0.0000
     atom:   40    charge:    1.7111    magn:    0.0298    constr:    0.0000
     atom:   41    charge:    1.7269    magn:   -0.0051    constr:    0.0000
     atom:   42    charge:    1.7141    magn:    0.0024    constr:    0.0000
     atom:   43    charge:    1.7183    magn:   -0.0040    constr:    0.0000
     atom:   44    charge:    1.7138    magn:    0.0067    constr:    0.0000
     atom:   45    charge:    1.7244    magn:   -0.0029    constr:    0.0000
     atom:   46    charge:    1.7138    magn:    0.0065    constr:    0.0000
     atom:   47    charge:    1.7182    magn:   -0.0039    constr:    0.0000
     atom:   48    charge:    1.7157    magn:    0.0090    constr:    0.0000
     atom:   49    charge:    1.7169    magn:   -0.0075    constr:    0.0000
     atom:   50    charge:    1.7145    magn:    0.0226    constr:    0.0000
     atom:   51    charge:    1.7169    magn:   -0.0076    constr:    0.0000
     atom:   52    charge:    1.7157    magn:    0.0092    constr:    0.0000

     total cpu time spent up to now is     1911.1 secs

     End of self-consistent calculation

 ------ SPIN UP ------------


          k = 0.0000 0.0000 0.0000 ( 87777 PWs)   bands (ev):

   -62.8483 -37.9338 -37.9323 -36.6155 -19.6388 -18.7964 -18.7952 -18.7263
   -18.6808 -18.6804 -18.2460 -16.9408 -16.9403 -16.9401 -16.8042 -16.8035
   -16.5210 -16.0875 -16.0875 -15.9936 -15.8388 -15.8388 -15.0879 -13.8997
   -13.8936 -13.8928 -13.8664 -13.8663 -13.1393 -12.9218 -12.9216 -12.9039
   -12.5108 -12.5107 -12.1171 -11.6505 -11.6503 -11.5256 -11.1443 -11.1442
   -10.1556  -9.3430  -9.3429  -9.2625  -9.1868  -9.1867  -9.0968  -9.0722
    -9.0721  -9.0562  -8.4682  -8.4680  -7.8994  -7.8991  -7.8643  -7.8089
    -7.6819  -7.2584  -7.2580  -7.0398  -6.9663  -6.9659  -6.8992  -6.7039
    -6.7026  -6.7023  -6.5967  -6.5965  -6.5499  -6.4393  -6.4388  -6.3951
    -6.3904  -6.3900  -6.3380  -6.2956  -5.2646  -5.2643  -5.1618  -5.1616
    -4.9501  -4.9500  -4.8389  -4.7508  -4.6232  -4.6119  -4.6118  -4.2460
    -3.9897  -3.9896  -3.7631  -3.7630  -3.6630  -3.6363  -3.5031  -3.5030
    -2.9003  -2.2642  -2.2640  -2.2296  -2.2288  -1.7517  -1.6856  -1.6854
    -0.5484  -0.2435  -0.2431   0.8524   1.0452   1.0771   1.0773   1.7808
     2.0464   2.0466   2.5454   2.8922   2.8925   2.9709   3.4501   3.4792
     3.4792   3.7489   3.7491   3.7869   3.8974   3.9971   3.9971

     occupation numbers 
     1.0000   1.0000   1.0000   1.0000   1.0000   1.0000   1.0000   1.0000
     1.0000   1.0000   1.0000   1.0000   1.0000   1.0000   1.0000   1.0000
     1.0000   1.0000   1.0000   1.0000   1.0000   1.0000   1.0000   1.0000
     1.0000   1.0000   1.0000   1.0000   1.0000   1.0000   1.0000   1.0000
     1.0000   1.0000   1.0000   1.0000   1.0000   1.0000   1.0000   1.0000
     1.0000   1.0000   1.0000   1.0000   1.0000   1.0000   1.0000   1.0000
     1.0000   1.0000   1.0000   1.0000   1.0000   1.0000   1.0000   1.0000
     1.0000   1.0000   1.0000   1.0000   1.0000   1.0000   1.0000   1.0000
     1.0000   1.0000   1.0000   1.0000   1.0000   1.0000   1.0000   1.0000
     1.0000   1.0000   1.0000   1.0000   1.0000   1.0000   1.0000   1.0000
     1.0000   1.0000   1.0000   1.0000   1.0000   1.0000   1.0000   1.0000
     1.0000   1.0000   1.0000   1.0000   1.0000   1.0000   1.0000   1.0000
     1.0000   1.0000   1.0000   1.0000   1.0000   1.0000   1.0000   1.0000
     1.0000   0.5093   0.4907   0.0000   0.0000   0.0000   0.0000   0.0000
     0.0000   0.0000   0.0000   0.0000   0.0000   0.0000   0.0000   0.0000
     0.0000   0.0000   0.0000   0.0000   0.0000   0.0000   0.0000

 ------ SPIN DOWN ----------


          k = 0.0000 0.0000 0.0000 ( 87777 PWs)   bands (ev):

   -62.6514 -37.7732 -37.7682 -36.3461 -19.6170 -18.7749 -18.7732 -18.7061
   -18.6642 -18.6637 -18.2141 -16.9243 -16.9217 -16.9212 -16.7760 -16.7750
   -16.5069 -16.0603 -16.0601 -15.9779 -15.8180 -15.8179 -15.0733 -13.8629
   -13.8626 -13.8625 -13.8533 -13.8520 -13.1419 -12.9113 -12.9110 -12.8882
   -12.5025 -12.5023 -12.0989 -11.6325 -11.6325 -11.5124 -11.1319 -11.1317
   -10.1411  -9.3261  -9.3258  -9.2495  -9.1693  -9.1691  -9.0887  -9.0581
    -9.0580  -9.0470  -8.4614  -8.4612  -7.8879  -7.8875  -7.8570  -7.7568
    -7.6733  -7.2496  -7.2492  -7.0362  -6.8888  -6.8879  -6.8790  -6.6705
    -6.6699  -6.6527  -6.5853  -6.5852  -6.5402  -6.4297  -6.4291  -6.3893
    -6.3838  -6.3834  -6.3299  -6.2197  -5.2563  -5.2559  -5.0780  -5.0761
    -4.9403  -4.9401  -4.8330  -4.7447  -4.5813  -4.5612  -4.5605  -4.2085
    -3.9389  -3.9379  -3.6887  -3.6885  -3.6171  -3.6060  -3.4966  -3.4964
    -2.8673  -2.1969  -2.1960  -2.1639  -2.1627  -1.6696  -1.6695  -1.6571
    -0.5413  -0.0205  -0.0158   0.9285   1.0983   1.0984   1.1229   1.8519
     2.1167   2.1179   2.5508   2.9637   2.9638   3.0115   3.4753   3.4859
     3.4859   3.7512   3.7515   3.7931   3.9299   4.0682   4.0693

     occupation numbers 
     1.0000   1.0000   1.0000   1.0000   1.0000   1.0000   1.0000   1.0000
     1.0000   1.0000   1.0000   1.0000   1.0000   1.0000   1.0000   1.0000
     1.0000   1.0000   1.0000   1.0000   1.0000   1.0000   1.0000   1.0000
     1.0000   1.0000   1.0000   1.0000   1.0000   1.0000   1.0000   1.0000
     1.0000   1.0000   1.0000   1.0000   1.0000   1.0000   1.0000   1.0000
     1.0000   1.0000   1.0000   1.0000   1.0000   1.0000   1.0000   1.0000
     1.0000   1.0000   1.0000   1.0000   1.0000   1.0000   1.0000   1.0000
     1.0000   1.0000   1.0000   1.0000   1.0000   1.0000   1.0000   1.0000
     1.0000   1.0000   1.0000   1.0000   1.0000   1.0000   1.0000   1.0000
     1.0000   1.0000   1.0000   1.0000   1.0000   1.0000   1.0000   1.0000
     1.0000   1.0000   1.0000   1.0000   1.0000   1.0000   1.0000   1.0000
     1.0000   1.0000   1.0000   1.0000   1.0000   1.0000   1.0000   1.0000
     1.0000   1.0000   1.0000   1.0000   1.0000   1.0000   1.0000   1.0000
     1.0000   0.0000   0.0000   0.0000   0.0000   0.0000   0.0000   0.0000
     0.0000   0.0000   0.0000   0.0000   0.0000   0.0000   0.0000   0.0000
     0.0000   0.0000   0.0000   0.0000   0.0000   0.0000   0.0000

     the Fermi energy is    -0.2414 ev

!    total energy              =    -757.33251271 Ry
     Harris-Foulkes estimate   =    -757.33251039 Ry
     estimated scf accuracy    <       0.00000029 Ry

     The total energy is the sum of the following terms:

     one-electron contribution =   -2580.28280263 Ry
     hartree contribution      =    1336.92747540 Ry
     xc contribution           =    -252.66541733 Ry
     ewald contribution        =     738.68855991 Ry
     smearing contrib. (-TS)   =      -0.00032806 Ry

     total magnetization       =     1.00 Bohr mag/cell
     absolute magnetization    =     1.52 Bohr mag/cell

     convergence has been achieved in  17 iterations

     Writing output data file distance-3.0.save/

     init_run     :     76.42s CPU     77.86s WALL (       1 calls)
     electrons    :   1800.98s CPU   1832.33s WALL (       1 calls)

     Called by init_run:
     wfcinit      :     41.64s CPU     41.92s WALL (       1 calls)
     wfcinit:atom :      0.05s CPU      0.09s WALL (       2 calls)
     wfcinit:wfcr :     41.24s CPU     41.43s WALL (       2 calls)
     potinit      :     14.28s CPU     14.74s WALL (       1 calls)
     hinit0       :     12.16s CPU     12.20s WALL (       1 calls)

     Called by electrons:
     c_bands      :   1210.29s CPU   1217.15s WALL (      17 calls)
     sum_band     :    342.31s CPU    352.06s WALL (      17 calls)
     v_of_rho     :    127.29s CPU    133.91s WALL (      18 calls)
     v_h          :      1.31s CPU      1.34s WALL (      18 calls)
     v_xc         :    125.98s CPU    132.57s WALL (      18 calls)
     newd         :    124.16s CPU    133.11s WALL (      18 calls)
     mix_rho      :      7.07s CPU      7.15s WALL (      17 calls)

     Called by c_bands:
     init_us_2    :      3.18s CPU      3.22s WALL (      70 calls)
     cegterg      :   1202.70s CPU   1209.51s WALL (      34 calls)

     Called by sum_band:
     sum_band:bec :      0.03s CPU      0.03s WALL (      34 calls)
     addusdens    :    210.02s CPU    218.99s WALL (      17 calls)

     Called by *egterg:
     h_psi        :    630.81s CPU    635.59s WALL (     174 calls)
     s_psi        :    214.85s CPU    214.99s WALL (     174 calls)
     g_psi        :      0.69s CPU      0.70s WALL (     138 calls)
     cdiaghg      :     13.56s CPU     13.57s WALL (     172 calls)
     cegterg:over :    152.51s CPU    152.62s WALL (     138 calls)
     cegterg:upda :    103.67s CPU    104.31s WALL (     138 calls)
     cegterg:last :     66.49s CPU     66.52s WALL (      35 calls)

     Called by h_psi:
     h_psi:pot    :    630.05s CPU    634.12s WALL (     174 calls)
     h_psi:calbec :    213.21s CPU    213.37s WALL (     174 calls)
     vloc_psi     :    201.98s CPU    205.79s WALL (     174 calls)
     add_vuspsi   :    214.85s CPU    214.96s WALL (     174 calls)

     General routines
     calbec       :    294.34s CPU    294.54s WALL (     208 calls)
     fft          :     72.29s CPU     74.86s WALL (    1344 calls)
     ffts         :      1.22s CPU      1.26s WALL (      70 calls)
     fftw         :    206.97s CPU    210.88s WALL (   27054 calls)
     interpolate  :      3.04s CPU      3.10s WALL (      36 calls)

     Parallel routines
     fft_scatt_xy :     48.92s CPU     49.59s WALL (   28468 calls)
     fft_scatt_yz :     92.46s CPU     96.99s WALL (   28468 calls)

     PWSCF        :  31m18.61s CPU  31m51.81s WALL


   This run was terminated on:  13:37: 6  21Aug2022            

=------------------------------------------------------------------------------=
   JOB DONE.
=------------------------------------------------------------------------------=
