
     Program PWSCF v.6.4.1 starts on 21Jul2022 at  4:51: 2 

     This program is part of the open-source Quantum ESPRESSO suite
     for quantum simulation of materials; please cite
         "P. Giannozzi et al., J. Phys.:Condens. Matter 21 395502 (2009);
         "P. Giannozzi et al., J. Phys.:Condens. Matter 29 465901 (2017);
          URL http://www.quantum-espresso.org", 
     in publications or presentations arising from this work. More details at
     http://www.quantum-espresso.org/quote

     Parallel version (MPI), running on     6 processors

     MPI processes distributed on     1 nodes
     R & G space division:  proc/nbgrp/npool/nimage =       6
     Reading input from distance-2.4.in

     Current dimensions of program PWSCF are:
     Max number of different atomic species (ntypx) = 10
     Max number of k-points (npk) =  40000
     Max angular momentum in pseudopotentials (lmaxx) =  3

     IMPORTANT: XC functional enforced from input :
     Exchange-correlation      = RVV10 ( 1  4 13  4 3 0)
     Any further DFT definition will be discarded
     Please, verify this is what you really want

               file H.pbe-rrkjus.UPF: wavefunction(s)  1S renormalized
               file V.pbe-spnl-rrkjus_psl.1.0.0.UPF: wavefunction(s)  3P 3D renormalized

     Subspace diagonalization in iterative solution of the eigenvalue problem:
     a serial algorithm will be used


     Parallelization info
     --------------------
     sticks:   dense  smooth     PW     G-vecs:    dense   smooth      PW
     Min        3051    1746    432               270999   117096   14629
     Max        3053    1747    437               271001   117099   14630
     Sum       18313   10477   2611              1626001   702581   87777



     bravais-lattice index     =            4
     lattice parameter (alat)  =      23.2937  a.u.
     unit-cell volume          =    8879.8548 (a.u.)^3
     number of atoms/cell      =           52
     number of atomic types    =            3
     number of electrons       =       211.00
     number of Kohn-Sham states=          127
     kinetic-energy cutoff     =      70.0000  Ry
     charge density cutoff     =     490.0000  Ry
     convergence threshold     =      1.0E-06
     mixing beta               =       0.7000
     number of iterations used =            8  plain     mixing
     Exchange-correlation      = RVV10 ( 1  4 13  4 3 0)

     celldm(1)=  23.293684  celldm(2)=   0.000000  celldm(3)=   0.811261
     celldm(4)=   0.000000  celldm(5)=   0.000000  celldm(6)=   0.000000

     crystal axes: (cart. coord. in units of alat)
               a(1) = (   1.000000   0.000000   0.000000 )  
               a(2) = (  -0.500000   0.866025   0.000000 )  
               a(3) = (   0.000000   0.000000   0.811261 )  

     reciprocal axes: (cart. coord. in units 2 pi/alat)
               b(1) = (  1.000000  0.577350 -0.000000 )  
               b(2) = (  0.000000  1.154701  0.000000 )  
               b(3) = (  0.000000 -0.000000  1.232649 )  


     PseudoPot. # 1 for H  read from file:
     /home/cristian/Escritorio/Proyecto_Grafeno/pseudopotenciales/H.pbe-rrkjus.UPF
     MD5 check sum: 7cc9d459525c9a0585f487a71c3c9563
     Pseudo is Ultrasoft, Zval =  1.0
     Generated by new atomic code, or converted to UPF format
     Using radial grid of 1061 points,  2 beta functions with: 
                l(1) =   0
                l(2) =   0
     Q(r) pseudized with 0 coefficients 


     PseudoPot. # 2 for C  read from file:
     /home/cristian/Escritorio/Proyecto_Grafeno/pseudopotenciales/C.pbe-n-rrkjus_psl.1.0.0.UPF
     MD5 check sum: 1fdd950c42eb37d8afe3dd2f8d12311e
     Pseudo is Ultrasoft + core correction, Zval =  4.0
     Generated using "atomic" code by A. Dal Corso v.6.3MaX
     Using radial grid of 1073 points,  4 beta functions with: 
                l(1) =   0
                l(2) =   0
                l(3) =   1
                l(4) =   1
     Q(r) pseudized with 0 coefficients 


     PseudoPot. # 3 for V  read from file:
     /home/cristian/Escritorio/Proyecto_Grafeno/pseudopotenciales/V.pbe-spnl-rrkjus_psl.1.0.0.UPF
     MD5 check sum: 79b3eb63147daf0b665d9f1bcc691206
     Pseudo is Ultrasoft + core correction, Zval = 13.0
     Generated using "atomic" code by A. Dal Corso v.6.2.2
     Using radial grid of 1181 points,  6 beta functions with: 
                l(1) =   0
                l(2) =   0
                l(3) =   1
                l(4) =   1
                l(5) =   2
                l(6) =   2
     Q(r) pseudized with 0 coefficients 


     vdW kernel table read from file rVV10_kernel_table
     MD5 check sum: b8e2538accc0c0b3206b45ba4daaba6c

     atomic species   valence    mass     pseudopotential
        H              1.00     1.00794     H ( 1.00)
        C              4.00    12.01070     C ( 1.00)
        V             13.00    50.94150     V ( 1.00)

      2 Sym. Ops. (no inversion) found


                                    s                        frac. trans.

      isym =  1     identity                                     

 cryst.   s( 1) = (     1          0          0      )
                  (     0          1          0      )
                  (     0          0          1      )

 cart.    s( 1) = (  1.0000000  0.0000000  0.0000000 )
                  (  0.0000000  1.0000000  0.0000000 )
                  (  0.0000000  0.0000000  1.0000000 )


      isym =  2     inv. 180 deg rotation - cryst. axis [1,1,0]  

 cryst.   s( 2) = (     0         -1          0      )
                  (    -1          0          0      )
                  (     0          0          1      )

 cart.    s( 2) = (  0.5000000 -0.8660254  0.0000000 )
                  ( -0.8660254 -0.5000000  0.0000000 )
                  (  0.0000000  0.0000000  1.0000000 )


     point group C_s (m)    
     there are  2 classes
     the character table:

       E     s    
A'     1.00  1.00
A''    1.00 -1.00

     the symmetry operations in each class and the name of the first element:

     E        1
          identity                                               
     s        2
          inv. 180 deg rotation - cryst. axis [1,1,0]            

   Cartesian axes

     site n.     atom                  positions (alat units)
         1           H   tau(   1) = (   0.3000000   0.4041452   0.1947027  )
         2           H   tau(   2) = (   0.3000000   0.4041452   0.2557154  )
         3           C   tau(   3) = (   0.0000000   0.0000000   0.0000000  )
         4           C   tau(   4) = (   0.0000000   0.1154701   0.0000000  )
         5           C   tau(   5) = (  -0.1000000   0.1732051   0.0000000  )
         6           C   tau(   6) = (  -0.1000000   0.2886751   0.0000000  )
         7           C   tau(   7) = (  -0.2000000   0.3464102   0.0000000  )
         8           C   tau(   8) = (  -0.2000000   0.4618802   0.0000000  )
         9           C   tau(   9) = (  -0.3000000   0.5196152   0.0000000  )
        10           C   tau(  10) = (  -0.3000000   0.6350853   0.0000000  )
        11           C   tau(  11) = (  -0.4000000   0.6928203   0.0000000  )
        12           C   tau(  12) = (  -0.4000000   0.8082904   0.0000000  )
        13           C   tau(  13) = (   0.2000000   0.0000000   0.0000000  )
        14           C   tau(  14) = (   0.2000000   0.1154701   0.0000000  )
        15           C   tau(  15) = (   0.1000000   0.1732051   0.0000000  )
        16           C   tau(  16) = (   0.1000000   0.2886751   0.0000000  )
        17           C   tau(  17) = (   0.0000000   0.3464102   0.0000000  )
        18           C   tau(  18) = (   0.0000000   0.4618802   0.0000000  )
        19           C   tau(  19) = (  -0.1000000   0.5196152   0.0000000  )
        20           C   tau(  20) = (  -0.1000000   0.6350853   0.0000000  )
        21           C   tau(  21) = (  -0.2000000   0.6928203   0.0000000  )
        22           C   tau(  22) = (  -0.2000000   0.8082904   0.0000000  )
        23           C   tau(  23) = (   0.4000000   0.0000000   0.0000000  )
        24           C   tau(  24) = (   0.4000000   0.1154701   0.0000000  )
        25           C   tau(  25) = (   0.3000000   0.1732051   0.0000000  )
        26           C   tau(  26) = (   0.3000000   0.2886751   0.0000000  )
        27           C   tau(  27) = (   0.2000000   0.3464102   0.0000000  )
        28           V   tau(  28) = (   0.2000000   0.4618802   0.0000000  )
        29           C   tau(  29) = (   0.1000000   0.5196152   0.0000000  )
        30           C   tau(  30) = (   0.1000000   0.6350853   0.0000000  )
        31           C   tau(  31) = (   0.0000000   0.6928203   0.0000000  )
        32           C   tau(  32) = (   0.0000000   0.8082904   0.0000000  )
        33           C   tau(  33) = (   0.6000000   0.0000000   0.0000000  )
        34           C   tau(  34) = (   0.6000000   0.1154701   0.0000000  )
        35           C   tau(  35) = (   0.5000000   0.1732051   0.0000000  )
        36           C   tau(  36) = (   0.5000000   0.2886751   0.0000000  )
        37           C   tau(  37) = (   0.4000000   0.3464102   0.0000000  )
        38           C   tau(  38) = (   0.4000000   0.4618802   0.0000000  )
        39           C   tau(  39) = (   0.3000000   0.5196152   0.0000000  )
        40           C   tau(  40) = (   0.3000000   0.6350853   0.0000000  )
        41           C   tau(  41) = (   0.2000000   0.6928203   0.0000000  )
        42           C   tau(  42) = (   0.2000000   0.8082904   0.0000000  )
        43           C   tau(  43) = (   0.8000000   0.0000000   0.0000000  )
        44           C   tau(  44) = (   0.8000000   0.1154701   0.0000000  )
        45           C   tau(  45) = (   0.7000000   0.1732051   0.0000000  )
        46           C   tau(  46) = (   0.7000000   0.2886751   0.0000000  )
        47           C   tau(  47) = (   0.6000000   0.3464102   0.0000000  )
        48           C   tau(  48) = (   0.6000000   0.4618802   0.0000000  )
        49           C   tau(  49) = (   0.5000000   0.5196152   0.0000000  )
        50           C   tau(  50) = (   0.5000000   0.6350853   0.0000000  )
        51           C   tau(  51) = (   0.4000000   0.6928203   0.0000000  )
        52           C   tau(  52) = (   0.4000000   0.8082904   0.0000000  )

   Crystallographic axes

     site n.     atom                  positions (cryst. coord.)
         1           H   tau(   1) = (  0.5333333  0.4666667  0.2400000  )
         2           H   tau(   2) = (  0.5333333  0.4666667  0.3152072  )
         3           C   tau(   3) = (  0.0000000  0.0000000  0.0000000  )
         4           C   tau(   4) = (  0.0666667  0.1333333  0.0000000  )
         5           C   tau(   5) = (  0.0000000  0.2000000  0.0000000  )
         6           C   tau(   6) = (  0.0666667  0.3333333  0.0000000  )
         7           C   tau(   7) = (  0.0000000  0.4000000  0.0000000  )
         8           C   tau(   8) = (  0.0666667  0.5333333  0.0000000  )
         9           C   tau(   9) = (  0.0000000  0.6000000  0.0000000  )
        10           C   tau(  10) = (  0.0666667  0.7333333  0.0000000  )
        11           C   tau(  11) = (  0.0000000  0.8000000  0.0000000  )
        12           C   tau(  12) = (  0.0666667  0.9333333  0.0000000  )
        13           C   tau(  13) = (  0.2000000  0.0000000  0.0000000  )
        14           C   tau(  14) = (  0.2666667  0.1333333  0.0000000  )
        15           C   tau(  15) = (  0.2000000  0.2000000  0.0000000  )
        16           C   tau(  16) = (  0.2666667  0.3333333  0.0000000  )
        17           C   tau(  17) = (  0.2000000  0.4000000  0.0000000  )
        18           C   tau(  18) = (  0.2666667  0.5333333  0.0000000  )
        19           C   tau(  19) = (  0.2000000  0.6000000  0.0000000  )
        20           C   tau(  20) = (  0.2666667  0.7333333  0.0000000  )
        21           C   tau(  21) = (  0.2000000  0.8000000  0.0000000  )
        22           C   tau(  22) = (  0.2666667  0.9333333  0.0000000  )
        23           C   tau(  23) = (  0.4000000  0.0000000  0.0000000  )
        24           C   tau(  24) = (  0.4666667  0.1333333  0.0000000  )
        25           C   tau(  25) = (  0.4000000  0.2000000  0.0000000  )
        26           C   tau(  26) = (  0.4666667  0.3333333  0.0000000  )
        27           C   tau(  27) = (  0.4000000  0.4000000  0.0000000  )
        28           V   tau(  28) = (  0.4666667  0.5333333  0.0000000  )
        29           C   tau(  29) = (  0.4000000  0.6000000  0.0000000  )
        30           C   tau(  30) = (  0.4666667  0.7333333  0.0000000  )
        31           C   tau(  31) = (  0.4000000  0.8000000  0.0000000  )
        32           C   tau(  32) = (  0.4666667  0.9333333  0.0000000  )
        33           C   tau(  33) = (  0.6000000  0.0000000  0.0000000  )
        34           C   tau(  34) = (  0.6666667  0.1333333  0.0000000  )
        35           C   tau(  35) = (  0.6000000  0.2000000  0.0000000  )
        36           C   tau(  36) = (  0.6666667  0.3333333  0.0000000  )
        37           C   tau(  37) = (  0.6000000  0.4000000  0.0000000  )
        38           C   tau(  38) = (  0.6666667  0.5333333  0.0000000  )
        39           C   tau(  39) = (  0.6000000  0.6000000  0.0000000  )
        40           C   tau(  40) = (  0.6666667  0.7333333  0.0000000  )
        41           C   tau(  41) = (  0.6000000  0.8000000  0.0000000  )
        42           C   tau(  42) = (  0.6666667  0.9333333  0.0000000  )
        43           C   tau(  43) = (  0.8000000  0.0000000  0.0000000  )
        44           C   tau(  44) = (  0.8666667  0.1333333  0.0000000  )
        45           C   tau(  45) = (  0.8000000  0.2000000  0.0000000  )
        46           C   tau(  46) = (  0.8666667  0.3333333  0.0000000  )
        47           C   tau(  47) = (  0.8000000  0.4000000  0.0000000  )
        48           C   tau(  48) = (  0.8666667  0.5333333  0.0000000  )
        49           C   tau(  49) = (  0.8000000  0.6000000  0.0000000  )
        50           C   tau(  50) = (  0.8666667  0.7333333  0.0000000  )
        51           C   tau(  51) = (  0.8000000  0.8000000  0.0000000  )
        52           C   tau(  52) = (  0.8666667  0.9333333  0.0000000  )

     number of k points=     1  Marzari-Vanderbilt smearing, width (Ry)=  0.0010
                       cart. coord. in units 2pi/alat
        k(    1) = (   0.0000000   0.0000000   0.0000000), wk =   2.0000000

                       cryst. coord.
        k(    1) = (   0.0000000   0.0000000   0.0000000), wk =   2.0000000

     Dense  grid:  1626001 G-vectors     FFT dimensions: ( 180, 180, 135)

     Smooth grid:   702581 G-vectors     FFT dimensions: ( 125, 125, 108)

     Dynamical RAM for                 wfc:      28.36 MB

     Dynamical RAM for     wfc (w. buffer):      28.36 MB

     Dynamical RAM for           str. fact:      12.41 MB

     Dynamical RAM for           local pot:       0.00 MB

     Dynamical RAM for          nlocal pot:      92.46 MB

     Dynamical RAM for                qrad:      19.73 MB

     Dynamical RAM for          rho,v,vnew:      29.46 MB

     Dynamical RAM for               rhoin:       9.82 MB

     Dynamical RAM for            rho*nmix:      66.16 MB

     Dynamical RAM for           G-vectors:      16.40 MB

     Dynamical RAM for          h,s,v(r/c):      11.81 MB

     Dynamical RAM for          <psi|beta>:       0.80 MB

     Dynamical RAM for                 psi:     113.46 MB

     Dynamical RAM for                hpsi:     113.46 MB

     Dynamical RAM for                spsi:     113.46 MB

     Dynamical RAM for      wfcinit/wfcrot:      93.90 MB

     Dynamical RAM for           addusdens:     971.75 MB

     Estimated static dynamical RAM per process >     319.78 MB

     Estimated max dynamical RAM per process >       1.26 GB

     Estimated total dynamical RAM >       7.57 GB

     Check: negative core charge=   -0.000002

     Initial potential from superposition of free atoms

     starting charge  210.80465, renormalised to  211.00000

     negative rho (up, down):  1.250E-04 0.000E+00


---------------------------------------------------------------------------------
Carrying out rVV10 run using the following parameters:
Nqs =      20    Nr_points =    1024   r_max =   100.000
b_value =  6.30000    beta =  0.00901
     q_mesh =  0.00010000  0.00030000  0.00058939  0.00100810
               0.00161396  0.00249058  0.00375900  0.00559430
               0.00824984  0.01209221  0.01765183  0.02569619
               0.03733578  0.05417739  0.07854596  0.11380545
               0.16482331  0.23864234  0.34545298  0.50000000

Gradients computed in Reciprocal space

---------------------------------------------------------------------------------


     Starting wfcs are  208 randomized atomic wfcs

     total cpu time spent up to now is       49.2 secs

     Self-consistent Calculation

     iteration #  1     ecut=    70.00 Ry     beta= 0.70
     Davidson diagonalization with overlap
     ethr =  1.00E-02,  avg # of iterations =  3.0

     negative rho (up, down):  1.978E-03 0.000E+00

     total cpu time spent up to now is      115.1 secs

     total energy              =    -754.62511152 Ry
     Harris-Foulkes estimate   =    -760.52141813 Ry
     estimated scf accuracy    <       8.69395982 Ry

     iteration #  2     ecut=    70.00 Ry     beta= 0.70
     Davidson diagonalization with overlap
     ethr =  4.12E-03,  avg # of iterations =  7.0

     negative rho (up, down):  2.350E-02 0.000E+00

     total cpu time spent up to now is      180.5 secs

     total energy              =    -748.10759918 Ry
     Harris-Foulkes estimate   =    -763.99968126 Ry
     estimated scf accuracy    <      54.41551046 Ry

     iteration #  3     ecut=    70.00 Ry     beta= 0.70
     Davidson diagonalization with overlap
     ethr =  4.12E-03,  avg # of iterations =  5.0

     negative rho (up, down):  2.886E-03 0.000E+00

     total cpu time spent up to now is      273.3 secs

     total energy              =    -755.47248471 Ry
     Harris-Foulkes estimate   =    -758.96862404 Ry
     estimated scf accuracy    <      16.93607771 Ry

     iteration #  4     ecut=    70.00 Ry     beta= 0.70
     Davidson diagonalization with overlap
     ethr =  4.12E-03,  avg # of iterations =  4.0

     negative rho (up, down):  5.004E-02 0.000E+00

     total cpu time spent up to now is      325.3 secs

     total energy              =    -757.06799364 Ry
     Harris-Foulkes estimate   =    -757.80527960 Ry
     estimated scf accuracy    <       2.20650247 Ry

     iteration #  5     ecut=    70.00 Ry     beta= 0.70
     Davidson diagonalization with overlap
     ethr =  1.05E-03,  avg # of iterations =  6.0

     negative rho (up, down):  7.112E-02 0.000E+00

     total cpu time spent up to now is      379.8 secs

     total energy              =    -757.27034302 Ry
     Harris-Foulkes estimate   =    -757.34964797 Ry
     estimated scf accuracy    <       0.28326443 Ry

     iteration #  6     ecut=    70.00 Ry     beta= 0.70
     Davidson diagonalization with overlap
     ethr =  1.34E-04,  avg # of iterations =  3.0

     negative rho (up, down):  5.776E-02 0.000E+00

     total cpu time spent up to now is      431.4 secs

     total energy              =    -757.29187118 Ry
     Harris-Foulkes estimate   =    -757.31676135 Ry
     estimated scf accuracy    <       0.16561827 Ry

     iteration #  7     ecut=    70.00 Ry     beta= 0.70
     Davidson diagonalization with overlap
     ethr =  7.85E-05,  avg # of iterations =  3.0

     negative rho (up, down):  4.263E-02 0.000E+00

     total cpu time spent up to now is      481.1 secs

     total energy              =    -757.30527325 Ry
     Harris-Foulkes estimate   =    -757.31416129 Ry
     estimated scf accuracy    <       0.09109718 Ry

     iteration #  8     ecut=    70.00 Ry     beta= 0.70
     Davidson diagonalization with overlap
     ethr =  4.32E-05,  avg # of iterations =  3.0

     negative rho (up, down):  2.535E-02 0.000E+00

     total cpu time spent up to now is      530.6 secs

     total energy              =    -757.32228794 Ry
     Harris-Foulkes estimate   =    -757.31359181 Ry
     estimated scf accuracy    <       0.01685100 Ry

     iteration #  9     ecut=    70.00 Ry     beta= 0.70
     Davidson diagonalization with overlap
     ethr =  7.99E-06,  avg # of iterations = 10.0

     negative rho (up, down):  3.244E-02 0.000E+00

     total cpu time spent up to now is      596.6 secs

     total energy              =    -757.32533187 Ry
     Harris-Foulkes estimate   =    -757.32783927 Ry
     estimated scf accuracy    <       0.00955958 Ry

     iteration # 10     ecut=    70.00 Ry     beta= 0.70
     Davidson diagonalization with overlap
     ethr =  4.53E-06,  avg # of iterations =  8.0

     negative rho (up, down):  3.466E-02 0.000E+00

     total cpu time spent up to now is      650.0 secs

     total energy              =    -757.32640978 Ry
     Harris-Foulkes estimate   =    -757.32775651 Ry
     estimated scf accuracy    <       0.01473691 Ry

     iteration # 11     ecut=    70.00 Ry     beta= 0.70
     Davidson diagonalization with overlap
     ethr =  4.53E-06,  avg # of iterations =  1.0

     negative rho (up, down):  3.292E-02 0.000E+00

     total cpu time spent up to now is      698.2 secs

     total energy              =    -757.32857648 Ry
     Harris-Foulkes estimate   =    -757.32696513 Ry
     estimated scf accuracy    <       0.00061690 Ry

     iteration # 12     ecut=    70.00 Ry     beta= 0.70
     Davidson diagonalization with overlap
     ethr =  2.92E-07,  avg # of iterations =  8.0

     negative rho (up, down):  3.378E-02 0.000E+00

     total cpu time spent up to now is      757.7 secs

     total energy              =    -757.32895509 Ry
     Harris-Foulkes estimate   =    -757.32873466 Ry
     estimated scf accuracy    <       0.00023185 Ry

     iteration # 13     ecut=    70.00 Ry     beta= 0.70
     Davidson diagonalization with overlap
     ethr =  1.10E-07,  avg # of iterations =  4.0

     negative rho (up, down):  3.401E-02 0.000E+00

     total cpu time spent up to now is      810.7 secs

     total energy              =    -757.32895877 Ry
     Harris-Foulkes estimate   =    -757.32898873 Ry
     estimated scf accuracy    <       0.00040754 Ry

     iteration # 14     ecut=    70.00 Ry     beta= 0.70
     Davidson diagonalization with overlap
     ethr =  1.10E-07,  avg # of iterations =  3.0

     negative rho (up, down):  3.411E-02 0.000E+00

     total cpu time spent up to now is      860.0 secs

     total energy              =    -757.32898004 Ry
     Harris-Foulkes estimate   =    -757.32899368 Ry
     estimated scf accuracy    <       0.00029263 Ry

     iteration # 15     ecut=    70.00 Ry     beta= 0.70
     Davidson diagonalization with overlap
     ethr =  1.10E-07,  avg # of iterations =  1.0

     negative rho (up, down):  3.419E-02 0.000E+00

     total cpu time spent up to now is      908.2 secs

     total energy              =    -757.32898328 Ry
     Harris-Foulkes estimate   =    -757.32898558 Ry
     estimated scf accuracy    <       0.00004036 Ry

     iteration # 16     ecut=    70.00 Ry     beta= 0.70
     Davidson diagonalization with overlap
     ethr =  1.91E-08,  avg # of iterations =  2.0

     negative rho (up, down):  3.422E-02 0.000E+00

     total cpu time spent up to now is      956.7 secs

     total energy              =    -757.32898445 Ry
     Harris-Foulkes estimate   =    -757.32898488 Ry
     estimated scf accuracy    <       0.00000571 Ry

     iteration # 17     ecut=    70.00 Ry     beta= 0.70
     Davidson diagonalization with overlap
     ethr =  2.71E-09,  avg # of iterations =  3.0

     negative rho (up, down):  3.424E-02 0.000E+00

     total cpu time spent up to now is     1005.3 secs

     End of self-consistent calculation

          k = 0.0000 0.0000 0.0000 ( 87777 PWs)   bands (ev):

   -62.7641 -37.8650 -37.8648 -36.4954 -19.6299 -18.7871 -18.7866 -18.7175
   -18.6766 -18.6741 -18.2334 -16.9347 -16.9343 -16.9331 -16.7921 -16.7912
   -16.5158 -16.0765 -16.0764 -15.9881 -15.8317 -15.8301 -15.0837 -13.8836
   -13.8775 -13.8771 -13.8641 -13.8641 -13.1423 -12.9199 -12.9187 -12.8989
   -12.5093 -12.5081 -12.1103 -11.6441 -11.6438 -11.5215 -11.1414 -11.1401
   -10.1513  -9.3375  -9.3373  -9.2586  -9.1809  -9.1803  -9.0944  -9.0671
    -9.0669  -9.0532  -8.4673  -8.4667  -7.8966  -7.8959  -7.8653  -7.8097
    -7.6794  -7.2800  -7.2553  -7.2287  -6.9308  -6.8948  -6.8178  -6.6881
    -6.6841  -6.6350  -6.5931  -6.5928  -6.5473  -6.4369  -6.4357  -6.3938
    -6.3896  -6.3893  -6.3361  -6.1710  -5.2621  -5.2619  -5.1250  -5.1032
    -4.9475  -4.9467  -4.8382  -4.7502  -4.6050  -4.5885  -4.5838  -4.2225
    -3.9669  -3.9654  -3.7289  -3.7251  -3.6414  -3.6266  -3.5017  -3.5017
    -2.8815  -2.2357  -2.2333  -2.2028  -2.2022  -1.7081  -1.6798  -1.6790
    -0.5482  -0.1381  -0.1380   0.9546   1.0773   1.0805   1.0858   1.8211
     2.0760   2.0768   2.5676   2.9212   2.9253   2.9848   3.5031   3.5734
     3.6173   3.7589   3.7737   3.8267   3.9004   4.0293   4.0298

     occupation numbers 
     1.0000   1.0000   1.0000   1.0000   1.0000   1.0000   1.0000   1.0000
     1.0000   1.0000   1.0000   1.0000   1.0000   1.0000   1.0000   1.0000
     1.0000   1.0000   1.0000   1.0000   1.0000   1.0000   1.0000   1.0000
     1.0000   1.0000   1.0000   1.0000   1.0000   1.0000   1.0000   1.0000
     1.0000   1.0000   1.0000   1.0000   1.0000   1.0000   1.0000   1.0000
     1.0000   1.0000   1.0000   1.0000   1.0000   1.0000   1.0000   1.0000
     1.0000   1.0000   1.0000   1.0000   1.0000   1.0000   1.0000   1.0000
     1.0000   1.0000   1.0000   1.0000   1.0000   1.0000   1.0000   1.0000
     1.0000   1.0000   1.0000   1.0000   1.0000   1.0000   1.0000   1.0000
     1.0000   1.0000   1.0000   1.0000   1.0000   1.0000   1.0000   1.0000
     1.0000   1.0000   1.0000   1.0000   1.0000   1.0000   1.0000   1.0000
     1.0000   1.0000   1.0000   1.0000   1.0000   1.0000   1.0000   1.0000
     1.0000   1.0000   1.0000   1.0000   1.0000   1.0000   1.0000   1.0000
     1.0000   0.2531   0.2469   0.0000   0.0000   0.0000   0.0000   0.0000
     0.0000   0.0000   0.0000   0.0000   0.0000   0.0000   0.0000   0.0000
     0.0000   0.0000   0.0000   0.0000   0.0000   0.0000   0.0000

     the Fermi energy is    -0.1414 ev

!    total energy              =    -757.32898466 Ry
     Harris-Foulkes estimate   =    -757.32898477 Ry
     estimated scf accuracy    <       0.00000016 Ry

     The total energy is the sum of the following terms:

     one-electron contribution =   -2590.10873258 Ry
     hartree contribution      =    1341.83007592 Ry
     xc contribution           =    -252.67194359 Ry
     ewald contribution        =     743.62222905 Ry
     smearing contrib. (-TS)   =      -0.00061346 Ry

     convergence has been achieved in  17 iterations

     Writing output data file gr-12-sixhollow.save/

     init_run     :     46.71s CPU     48.09s WALL (       1 calls)
     electrons    :    928.43s CPU    956.20s WALL (       1 calls)

     Called by init_run:
     wfcinit      :     20.68s CPU     20.92s WALL (       1 calls)
     wfcinit:atom :      0.02s CPU      0.04s WALL (       1 calls)
     wfcinit:wfcr :     20.51s CPU     20.68s WALL (       1 calls)
     potinit      :     11.86s CPU     12.31s WALL (       1 calls)
     hinit0       :      9.60s CPU      9.64s WALL (       1 calls)

     Called by electrons:
     c_bands      :    582.92s CPU    586.26s WALL (      17 calls)
     sum_band     :    170.30s CPU    179.80s WALL (      17 calls)
     v_of_rho     :    108.80s CPU    115.39s WALL (      18 calls)
     v_h          :      1.24s CPU      1.28s WALL (      18 calls)
     v_xc         :    107.56s CPU    114.11s WALL (      18 calls)
     newd         :     71.21s CPU     80.39s WALL (      18 calls)
     mix_rho      :      3.19s CPU      3.26s WALL (      17 calls)

     Called by c_bands:
     init_us_2    :      1.48s CPU      1.53s WALL (      35 calls)
     cegterg      :    579.17s CPU    582.50s WALL (      17 calls)

     Called by sum_band:
     sum_band:bec :      0.01s CPU      0.01s WALL (      17 calls)
     addusdens    :    103.49s CPU    112.42s WALL (      17 calls)

     Called by *egterg:
     h_psi        :    302.13s CPU    304.51s WALL (      92 calls)
     s_psi        :    101.59s CPU    101.64s WALL (      92 calls)
     g_psi        :      0.33s CPU      0.33s WALL (      74 calls)
     cdiaghg      :      7.41s CPU      7.41s WALL (      91 calls)
     cegterg:over :     72.61s CPU     72.65s WALL (      74 calls)
     cegterg:upda :     47.55s CPU     47.86s WALL (      74 calls)
     cegterg:last :     35.65s CPU     35.67s WALL (      18 calls)

     Called by h_psi:
     h_psi:pot    :    301.79s CPU    303.77s WALL (      92 calls)
     h_psi:calbec :    101.36s CPU    101.42s WALL (      92 calls)
     vloc_psi     :     98.90s CPU    100.79s WALL (      92 calls)
     add_vuspsi   :    101.53s CPU    101.57s WALL (      92 calls)

     General routines
     calbec       :    141.53s CPU    141.62s WALL (     109 calls)
     fft          :     60.28s CPU     62.73s WALL (    1132 calls)
     ffts         :      0.61s CPU      0.65s WALL (      35 calls)
     fftw         :    104.06s CPU    106.13s WALL (   13081 calls)
     interpolate  :      1.51s CPU      1.57s WALL (      18 calls)

     Parallel routines
     fft_scatt_xy :     28.40s CPU     28.83s WALL (   14248 calls)
     fft_scatt_yz :     56.95s CPU     60.16s WALL (   14248 calls)

     PWSCF        :  16m16.38s CPU  16m45.81s WALL


   This run was terminated on:   5: 7:48  21Jul2022            

=------------------------------------------------------------------------------=
   JOB DONE.
=------------------------------------------------------------------------------=
