
     Program PWSCF v.6.4.1 starts on 21Jul2022 at  3:43:34 

     This program is part of the open-source Quantum ESPRESSO suite
     for quantum simulation of materials; please cite
         "P. Giannozzi et al., J. Phys.:Condens. Matter 21 395502 (2009);
         "P. Giannozzi et al., J. Phys.:Condens. Matter 29 465901 (2017);
          URL http://www.quantum-espresso.org", 
     in publications or presentations arising from this work. More details at
     http://www.quantum-espresso.org/quote

     Parallel version (MPI), running on     6 processors

     MPI processes distributed on     1 nodes
     R & G space division:  proc/nbgrp/npool/nimage =       6
     Reading input from distance-3.5.in

     Current dimensions of program PWSCF are:
     Max number of different atomic species (ntypx) = 10
     Max number of k-points (npk) =  40000
     Max angular momentum in pseudopotentials (lmaxx) =  3

     IMPORTANT: XC functional enforced from input :
     Exchange-correlation      = RVV10 ( 1  4 13  4 3 0)
     Any further DFT definition will be discarded
     Please, verify this is what you really want

               file H.pbe-rrkjus.UPF: wavefunction(s)  1S renormalized
               file V.pbe-spnl-rrkjus_psl.1.0.0.UPF: wavefunction(s)  3P 3D renormalized

     Subspace diagonalization in iterative solution of the eigenvalue problem:
     a serial algorithm will be used


     Parallelization info
     --------------------
     sticks:   dense  smooth     PW     G-vecs:    dense   smooth      PW
     Min        3051    1746    432               270999   117096   14629
     Max        3053    1747    437               271001   117099   14630
     Sum       18313   10477   2611              1626001   702581   87777



     bravais-lattice index     =            4
     lattice parameter (alat)  =      23.2937  a.u.
     unit-cell volume          =    8879.8548 (a.u.)^3
     number of atoms/cell      =           52
     number of atomic types    =            3
     number of electrons       =       211.00
     number of Kohn-Sham states=          127
     kinetic-energy cutoff     =      70.0000  Ry
     charge density cutoff     =     490.0000  Ry
     convergence threshold     =      1.0E-06
     mixing beta               =       0.7000
     number of iterations used =            8  plain     mixing
     Exchange-correlation      = RVV10 ( 1  4 13  4 3 0)

     celldm(1)=  23.293684  celldm(2)=   0.000000  celldm(3)=   0.811261
     celldm(4)=   0.000000  celldm(5)=   0.000000  celldm(6)=   0.000000

     crystal axes: (cart. coord. in units of alat)
               a(1) = (   1.000000   0.000000   0.000000 )  
               a(2) = (  -0.500000   0.866025   0.000000 )  
               a(3) = (   0.000000   0.000000   0.811261 )  

     reciprocal axes: (cart. coord. in units 2 pi/alat)
               b(1) = (  1.000000  0.577350 -0.000000 )  
               b(2) = (  0.000000  1.154701  0.000000 )  
               b(3) = (  0.000000 -0.000000  1.232649 )  


     PseudoPot. # 1 for H  read from file:
     /home/cristian/Escritorio/Proyecto_Grafeno/pseudopotenciales/H.pbe-rrkjus.UPF
     MD5 check sum: 7cc9d459525c9a0585f487a71c3c9563
     Pseudo is Ultrasoft, Zval =  1.0
     Generated by new atomic code, or converted to UPF format
     Using radial grid of 1061 points,  2 beta functions with: 
                l(1) =   0
                l(2) =   0
     Q(r) pseudized with 0 coefficients 


     PseudoPot. # 2 for C  read from file:
     /home/cristian/Escritorio/Proyecto_Grafeno/pseudopotenciales/C.pbe-n-rrkjus_psl.1.0.0.UPF
     MD5 check sum: 1fdd950c42eb37d8afe3dd2f8d12311e
     Pseudo is Ultrasoft + core correction, Zval =  4.0
     Generated using "atomic" code by A. Dal Corso v.6.3MaX
     Using radial grid of 1073 points,  4 beta functions with: 
                l(1) =   0
                l(2) =   0
                l(3) =   1
                l(4) =   1
     Q(r) pseudized with 0 coefficients 


     PseudoPot. # 3 for V  read from file:
     /home/cristian/Escritorio/Proyecto_Grafeno/pseudopotenciales/V.pbe-spnl-rrkjus_psl.1.0.0.UPF
     MD5 check sum: 79b3eb63147daf0b665d9f1bcc691206
     Pseudo is Ultrasoft + core correction, Zval = 13.0
     Generated using "atomic" code by A. Dal Corso v.6.2.2
     Using radial grid of 1181 points,  6 beta functions with: 
                l(1) =   0
                l(2) =   0
                l(3) =   1
                l(4) =   1
                l(5) =   2
                l(6) =   2
     Q(r) pseudized with 0 coefficients 


     vdW kernel table read from file rVV10_kernel_table
     MD5 check sum: b8e2538accc0c0b3206b45ba4daaba6c

     atomic species   valence    mass     pseudopotential
        H              1.00     1.00794     H ( 1.00)
        C              4.00    12.01070     C ( 1.00)
        V             13.00    50.94150     V ( 1.00)

      2 Sym. Ops. (no inversion) found


                                    s                        frac. trans.

      isym =  1     identity                                     

 cryst.   s( 1) = (     1          0          0      )
                  (     0          1          0      )
                  (     0          0          1      )

 cart.    s( 1) = (  1.0000000  0.0000000  0.0000000 )
                  (  0.0000000  1.0000000  0.0000000 )
                  (  0.0000000  0.0000000  1.0000000 )


      isym =  2     inv. 180 deg rotation - cryst. axis [1,1,0]  

 cryst.   s( 2) = (     0         -1          0      )
                  (    -1          0          0      )
                  (     0          0          1      )

 cart.    s( 2) = (  0.5000000 -0.8660254  0.0000000 )
                  ( -0.8660254 -0.5000000  0.0000000 )
                  (  0.0000000  0.0000000  1.0000000 )


     point group C_s (m)    
     there are  2 classes
     the character table:

       E     s    
A'     1.00  1.00
A''    1.00 -1.00

     the symmetry operations in each class and the name of the first element:

     E        1
          identity                                               
     s        2
          inv. 180 deg rotation - cryst. axis [1,1,0]            

   Cartesian axes

     site n.     atom                  positions (alat units)
         1           H   tau(   1) = (   0.3000000   0.4041452   0.2839414  )
         2           H   tau(   2) = (   0.3000000   0.4041452   0.3449541  )
         3           C   tau(   3) = (   0.0000000   0.0000000   0.0000000  )
         4           C   tau(   4) = (   0.0000000   0.1154701   0.0000000  )
         5           C   tau(   5) = (  -0.1000000   0.1732051   0.0000000  )
         6           C   tau(   6) = (  -0.1000000   0.2886751   0.0000000  )
         7           C   tau(   7) = (  -0.2000000   0.3464102   0.0000000  )
         8           C   tau(   8) = (  -0.2000000   0.4618802   0.0000000  )
         9           C   tau(   9) = (  -0.3000000   0.5196152   0.0000000  )
        10           C   tau(  10) = (  -0.3000000   0.6350853   0.0000000  )
        11           C   tau(  11) = (  -0.4000000   0.6928203   0.0000000  )
        12           C   tau(  12) = (  -0.4000000   0.8082904   0.0000000  )
        13           C   tau(  13) = (   0.2000000   0.0000000   0.0000000  )
        14           C   tau(  14) = (   0.2000000   0.1154701   0.0000000  )
        15           C   tau(  15) = (   0.1000000   0.1732051   0.0000000  )
        16           C   tau(  16) = (   0.1000000   0.2886751   0.0000000  )
        17           C   tau(  17) = (   0.0000000   0.3464102   0.0000000  )
        18           C   tau(  18) = (   0.0000000   0.4618802   0.0000000  )
        19           C   tau(  19) = (  -0.1000000   0.5196152   0.0000000  )
        20           C   tau(  20) = (  -0.1000000   0.6350853   0.0000000  )
        21           C   tau(  21) = (  -0.2000000   0.6928203   0.0000000  )
        22           C   tau(  22) = (  -0.2000000   0.8082904   0.0000000  )
        23           C   tau(  23) = (   0.4000000   0.0000000   0.0000000  )
        24           C   tau(  24) = (   0.4000000   0.1154701   0.0000000  )
        25           C   tau(  25) = (   0.3000000   0.1732051   0.0000000  )
        26           C   tau(  26) = (   0.3000000   0.2886751   0.0000000  )
        27           C   tau(  27) = (   0.2000000   0.3464102   0.0000000  )
        28           V   tau(  28) = (   0.2000000   0.4618802   0.0000000  )
        29           C   tau(  29) = (   0.1000000   0.5196152   0.0000000  )
        30           C   tau(  30) = (   0.1000000   0.6350853   0.0000000  )
        31           C   tau(  31) = (   0.0000000   0.6928203   0.0000000  )
        32           C   tau(  32) = (   0.0000000   0.8082904   0.0000000  )
        33           C   tau(  33) = (   0.6000000   0.0000000   0.0000000  )
        34           C   tau(  34) = (   0.6000000   0.1154701   0.0000000  )
        35           C   tau(  35) = (   0.5000000   0.1732051   0.0000000  )
        36           C   tau(  36) = (   0.5000000   0.2886751   0.0000000  )
        37           C   tau(  37) = (   0.4000000   0.3464102   0.0000000  )
        38           C   tau(  38) = (   0.4000000   0.4618802   0.0000000  )
        39           C   tau(  39) = (   0.3000000   0.5196152   0.0000000  )
        40           C   tau(  40) = (   0.3000000   0.6350853   0.0000000  )
        41           C   tau(  41) = (   0.2000000   0.6928203   0.0000000  )
        42           C   tau(  42) = (   0.2000000   0.8082904   0.0000000  )
        43           C   tau(  43) = (   0.8000000   0.0000000   0.0000000  )
        44           C   tau(  44) = (   0.8000000   0.1154701   0.0000000  )
        45           C   tau(  45) = (   0.7000000   0.1732051   0.0000000  )
        46           C   tau(  46) = (   0.7000000   0.2886751   0.0000000  )
        47           C   tau(  47) = (   0.6000000   0.3464102   0.0000000  )
        48           C   tau(  48) = (   0.6000000   0.4618802   0.0000000  )
        49           C   tau(  49) = (   0.5000000   0.5196152   0.0000000  )
        50           C   tau(  50) = (   0.5000000   0.6350853   0.0000000  )
        51           C   tau(  51) = (   0.4000000   0.6928203   0.0000000  )
        52           C   tau(  52) = (   0.4000000   0.8082904   0.0000000  )

   Crystallographic axes

     site n.     atom                  positions (cryst. coord.)
         1           H   tau(   1) = (  0.5333333  0.4666667  0.3500000  )
         2           H   tau(   2) = (  0.5333333  0.4666667  0.4252072  )
         3           C   tau(   3) = (  0.0000000  0.0000000  0.0000000  )
         4           C   tau(   4) = (  0.0666667  0.1333333  0.0000000  )
         5           C   tau(   5) = (  0.0000000  0.2000000  0.0000000  )
         6           C   tau(   6) = (  0.0666667  0.3333333  0.0000000  )
         7           C   tau(   7) = (  0.0000000  0.4000000  0.0000000  )
         8           C   tau(   8) = (  0.0666667  0.5333333  0.0000000  )
         9           C   tau(   9) = (  0.0000000  0.6000000  0.0000000  )
        10           C   tau(  10) = (  0.0666667  0.7333333  0.0000000  )
        11           C   tau(  11) = (  0.0000000  0.8000000  0.0000000  )
        12           C   tau(  12) = (  0.0666667  0.9333333  0.0000000  )
        13           C   tau(  13) = (  0.2000000  0.0000000  0.0000000  )
        14           C   tau(  14) = (  0.2666667  0.1333333  0.0000000  )
        15           C   tau(  15) = (  0.2000000  0.2000000  0.0000000  )
        16           C   tau(  16) = (  0.2666667  0.3333333  0.0000000  )
        17           C   tau(  17) = (  0.2000000  0.4000000  0.0000000  )
        18           C   tau(  18) = (  0.2666667  0.5333333  0.0000000  )
        19           C   tau(  19) = (  0.2000000  0.6000000  0.0000000  )
        20           C   tau(  20) = (  0.2666667  0.7333333  0.0000000  )
        21           C   tau(  21) = (  0.2000000  0.8000000  0.0000000  )
        22           C   tau(  22) = (  0.2666667  0.9333333  0.0000000  )
        23           C   tau(  23) = (  0.4000000  0.0000000  0.0000000  )
        24           C   tau(  24) = (  0.4666667  0.1333333  0.0000000  )
        25           C   tau(  25) = (  0.4000000  0.2000000  0.0000000  )
        26           C   tau(  26) = (  0.4666667  0.3333333  0.0000000  )
        27           C   tau(  27) = (  0.4000000  0.4000000  0.0000000  )
        28           V   tau(  28) = (  0.4666667  0.5333333  0.0000000  )
        29           C   tau(  29) = (  0.4000000  0.6000000  0.0000000  )
        30           C   tau(  30) = (  0.4666667  0.7333333  0.0000000  )
        31           C   tau(  31) = (  0.4000000  0.8000000  0.0000000  )
        32           C   tau(  32) = (  0.4666667  0.9333333  0.0000000  )
        33           C   tau(  33) = (  0.6000000  0.0000000  0.0000000  )
        34           C   tau(  34) = (  0.6666667  0.1333333  0.0000000  )
        35           C   tau(  35) = (  0.6000000  0.2000000  0.0000000  )
        36           C   tau(  36) = (  0.6666667  0.3333333  0.0000000  )
        37           C   tau(  37) = (  0.6000000  0.4000000  0.0000000  )
        38           C   tau(  38) = (  0.6666667  0.5333333  0.0000000  )
        39           C   tau(  39) = (  0.6000000  0.6000000  0.0000000  )
        40           C   tau(  40) = (  0.6666667  0.7333333  0.0000000  )
        41           C   tau(  41) = (  0.6000000  0.8000000  0.0000000  )
        42           C   tau(  42) = (  0.6666667  0.9333333  0.0000000  )
        43           C   tau(  43) = (  0.8000000  0.0000000  0.0000000  )
        44           C   tau(  44) = (  0.8666667  0.1333333  0.0000000  )
        45           C   tau(  45) = (  0.8000000  0.2000000  0.0000000  )
        46           C   tau(  46) = (  0.8666667  0.3333333  0.0000000  )
        47           C   tau(  47) = (  0.8000000  0.4000000  0.0000000  )
        48           C   tau(  48) = (  0.8666667  0.5333333  0.0000000  )
        49           C   tau(  49) = (  0.8000000  0.6000000  0.0000000  )
        50           C   tau(  50) = (  0.8666667  0.7333333  0.0000000  )
        51           C   tau(  51) = (  0.8000000  0.8000000  0.0000000  )
        52           C   tau(  52) = (  0.8666667  0.9333333  0.0000000  )

     number of k points=     1  Marzari-Vanderbilt smearing, width (Ry)=  0.0010
                       cart. coord. in units 2pi/alat
        k(    1) = (   0.0000000   0.0000000   0.0000000), wk =   2.0000000

                       cryst. coord.
        k(    1) = (   0.0000000   0.0000000   0.0000000), wk =   2.0000000

     Dense  grid:  1626001 G-vectors     FFT dimensions: ( 180, 180, 135)

     Smooth grid:   702581 G-vectors     FFT dimensions: ( 125, 125, 108)

     Dynamical RAM for                 wfc:      28.36 MB

     Dynamical RAM for     wfc (w. buffer):      28.36 MB

     Dynamical RAM for           str. fact:      12.41 MB

     Dynamical RAM for           local pot:       0.00 MB

     Dynamical RAM for          nlocal pot:      92.46 MB

     Dynamical RAM for                qrad:      19.73 MB

     Dynamical RAM for          rho,v,vnew:      29.46 MB

     Dynamical RAM for               rhoin:       9.82 MB

     Dynamical RAM for            rho*nmix:      66.16 MB

     Dynamical RAM for           G-vectors:      16.40 MB

     Dynamical RAM for          h,s,v(r/c):      11.81 MB

     Dynamical RAM for          <psi|beta>:       0.80 MB

     Dynamical RAM for                 psi:     113.46 MB

     Dynamical RAM for                hpsi:     113.46 MB

     Dynamical RAM for                spsi:     113.46 MB

     Dynamical RAM for      wfcinit/wfcrot:      93.90 MB

     Dynamical RAM for           addusdens:     971.75 MB

     Estimated static dynamical RAM per process >     319.78 MB

     Estimated max dynamical RAM per process >       1.26 GB

     Estimated total dynamical RAM >       7.57 GB

     Check: negative core charge=   -0.000002

     Initial potential from superposition of free atoms

     starting charge  210.80465, renormalised to  211.00000

     negative rho (up, down):  1.091E-04 0.000E+00


---------------------------------------------------------------------------------
Carrying out rVV10 run using the following parameters:
Nqs =      20    Nr_points =    1024   r_max =   100.000
b_value =  6.30000    beta =  0.00901
     q_mesh =  0.00010000  0.00030000  0.00058939  0.00100810
               0.00161396  0.00249058  0.00375900  0.00559430
               0.00824984  0.01209221  0.01765183  0.02569619
               0.03733578  0.05417739  0.07854596  0.11380545
               0.16482331  0.23864234  0.34545298  0.50000000

Gradients computed in Reciprocal space

---------------------------------------------------------------------------------


     Starting wfcs are  208 randomized atomic wfcs

     total cpu time spent up to now is       49.3 secs

     Self-consistent Calculation

     iteration #  1     ecut=    70.00 Ry     beta= 0.70
     Davidson diagonalization with overlap
     ethr =  1.00E-02,  avg # of iterations =  2.0

     negative rho (up, down):  2.874E-03 0.000E+00

     total cpu time spent up to now is      115.0 secs

     total energy              =    -755.25270754 Ry
     Harris-Foulkes estimate   =    -760.47430081 Ry
     estimated scf accuracy    <       7.96053737 Ry

     iteration #  2     ecut=    70.00 Ry     beta= 0.70
     Davidson diagonalization with overlap
     ethr =  3.77E-03,  avg # of iterations =  6.0

     negative rho (up, down):  2.309E-02 0.000E+00

     total cpu time spent up to now is      181.0 secs

     total energy              =    -748.60835000 Ry
     Harris-Foulkes estimate   =    -761.47432469 Ry
     estimated scf accuracy    <      43.10872695 Ry

     iteration #  3     ecut=    70.00 Ry     beta= 0.70
     Davidson diagonalization with overlap
     ethr =  3.77E-03,  avg # of iterations =  5.0

     negative rho (up, down):  4.280E-03 0.000E+00

     total cpu time spent up to now is      262.8 secs

     total energy              =    -755.37237725 Ry
     Harris-Foulkes estimate   =    -759.67033593 Ry
     estimated scf accuracy    <      22.53694063 Ry

     iteration #  4     ecut=    70.00 Ry     beta= 0.70
     Davidson diagonalization with overlap
     ethr =  3.77E-03,  avg # of iterations =  4.0

     negative rho (up, down):  4.201E-02 0.000E+00

     total cpu time spent up to now is      314.3 secs

     total energy              =    -757.10466211 Ry
     Harris-Foulkes estimate   =    -757.77204880 Ry
     estimated scf accuracy    <       1.94239509 Ry

     iteration #  5     ecut=    70.00 Ry     beta= 0.70
     Davidson diagonalization with overlap
     ethr =  9.21E-04,  avg # of iterations =  6.0

     negative rho (up, down):  6.516E-02 0.000E+00

     total cpu time spent up to now is      368.9 secs

     total energy              =    -757.27681288 Ry
     Harris-Foulkes estimate   =    -757.35730645 Ry
     estimated scf accuracy    <       0.30718694 Ry

     iteration #  6     ecut=    70.00 Ry     beta= 0.70
     Davidson diagonalization with overlap
     ethr =  1.46E-04,  avg # of iterations =  3.0

     negative rho (up, down):  5.847E-02 0.000E+00

     total cpu time spent up to now is      420.9 secs

     total energy              =    -757.29473360 Ry
     Harris-Foulkes estimate   =    -757.32596384 Ry
     estimated scf accuracy    <       0.20283258 Ry

     iteration #  7     ecut=    70.00 Ry     beta= 0.70
     Davidson diagonalization with overlap
     ethr =  9.61E-05,  avg # of iterations =  3.0

     negative rho (up, down):  4.150E-02 0.000E+00

     total cpu time spent up to now is      470.1 secs

     total energy              =    -757.30443039 Ry
     Harris-Foulkes estimate   =    -757.31501450 Ry
     estimated scf accuracy    <       0.11333520 Ry

     iteration #  8     ecut=    70.00 Ry     beta= 0.70
     Davidson diagonalization with overlap
     ethr =  5.37E-05,  avg # of iterations = 11.0

     negative rho (up, down):  2.978E-02 0.000E+00

     total cpu time spent up to now is      521.0 secs

     total energy              =    -757.31491022 Ry
     Harris-Foulkes estimate   =    -757.31338375 Ry
     estimated scf accuracy    <       0.03955977 Ry

     iteration #  9     ecut=    70.00 Ry     beta= 0.70
     Davidson diagonalization with overlap
     ethr =  1.87E-05,  avg # of iterations =  5.0

     negative rho (up, down):  3.144E-02 0.000E+00

     total cpu time spent up to now is      576.3 secs

     total energy              =    -757.32299346 Ry
     Harris-Foulkes estimate   =    -757.32394546 Ry
     estimated scf accuracy    <       0.02578876 Ry

     iteration # 10     ecut=    70.00 Ry     beta= 0.70
     Davidson diagonalization with overlap
     ethr =  1.22E-05,  avg # of iterations =  3.0

     negative rho (up, down):  3.205E-02 0.000E+00

     total cpu time spent up to now is      627.7 secs

     total energy              =    -757.32492856 Ry
     Harris-Foulkes estimate   =    -757.32476788 Ry
     estimated scf accuracy    <       0.01356065 Ry

     iteration # 11     ecut=    70.00 Ry     beta= 0.70
     Davidson diagonalization with overlap
     ethr =  6.43E-06,  avg # of iterations = 15.0

     negative rho (up, down):  3.327E-02 0.000E+00

     total cpu time spent up to now is      681.8 secs

     total energy              =    -757.32601090 Ry
     Harris-Foulkes estimate   =    -757.32649164 Ry
     estimated scf accuracy    <       0.00915874 Ry

     iteration # 12     ecut=    70.00 Ry     beta= 0.70
     Davidson diagonalization with overlap
     ethr =  4.34E-06,  avg # of iterations =  1.0

     negative rho (up, down):  3.322E-02 0.000E+00

     total cpu time spent up to now is      730.0 secs

     total energy              =    -757.32696589 Ry
     Harris-Foulkes estimate   =    -757.32631272 Ry
     estimated scf accuracy    <       0.00036046 Ry

     iteration # 13     ecut=    70.00 Ry     beta= 0.70
     Davidson diagonalization with overlap
     ethr =  1.71E-07,  avg # of iterations =  5.0

     negative rho (up, down):  3.364E-02 0.000E+00

     total cpu time spent up to now is      784.7 secs

     total energy              =    -757.32699130 Ry
     Harris-Foulkes estimate   =    -757.32706213 Ry
     estimated scf accuracy    <       0.00092552 Ry

     iteration # 14     ecut=    70.00 Ry     beta= 0.70
     Davidson diagonalization with overlap
     ethr =  1.71E-07,  avg # of iterations =  1.0

     negative rho (up, down):  3.396E-02 0.000E+00

     total cpu time spent up to now is      832.9 secs

     total energy              =    -757.32704019 Ry
     Harris-Foulkes estimate   =    -757.32702651 Ry
     estimated scf accuracy    <       0.00005588 Ry

     iteration # 15     ecut=    70.00 Ry     beta= 0.70
     Davidson diagonalization with overlap
     ethr =  2.65E-08,  avg # of iterations =  3.0

     negative rho (up, down):  3.397E-02 0.000E+00

     total cpu time spent up to now is      883.0 secs

     total energy              =    -757.32704733 Ry
     Harris-Foulkes estimate   =    -757.32704937 Ry
     estimated scf accuracy    <       0.00002515 Ry

     iteration # 16     ecut=    70.00 Ry     beta= 0.70
     Davidson diagonalization with overlap
     ethr =  1.19E-08,  avg # of iterations =  3.0

     negative rho (up, down):  3.402E-02 0.000E+00

     total cpu time spent up to now is      933.5 secs

     total energy              =    -757.32704992 Ry
     Harris-Foulkes estimate   =    -757.32705043 Ry
     estimated scf accuracy    <       0.00000427 Ry

     iteration # 17     ecut=    70.00 Ry     beta= 0.70
     Davidson diagonalization with overlap
     ethr =  2.02E-09,  avg # of iterations =  2.0

     negative rho (up, down):  3.405E-02 0.000E+00

     total cpu time spent up to now is      982.3 secs

     total energy              =    -757.32704993 Ry
     Harris-Foulkes estimate   =    -757.32705015 Ry
     estimated scf accuracy    <       0.00000115 Ry

     iteration # 18     ecut=    70.00 Ry     beta= 0.70
     Davidson diagonalization with overlap
     ethr =  5.45E-10,  avg # of iterations =  3.0

     negative rho (up, down):  3.405E-02 0.000E+00

     total cpu time spent up to now is     1031.2 secs

     End of self-consistent calculation

          k = 0.0000 0.0000 0.0000 ( 87777 PWs)   bands (ev):

   -62.7710 -37.8716 -37.8709 -36.5034 -19.6329 -18.7903 -18.7901 -18.7201
   -18.6784 -18.6778 -18.2367 -16.9379 -16.9369 -16.9364 -16.7950 -16.7947
   -16.5184 -16.0798 -16.0798 -15.9910 -15.8342 -15.8341 -15.0869 -13.8873
   -13.8812 -13.8811 -13.8672 -13.8671 -13.1454 -12.9224 -12.9222 -12.9020
   -12.5118 -12.5116 -12.1135 -11.6474 -11.6472 -11.5245 -11.1440 -11.1440
   -10.1541  -9.3410  -9.3410  -9.2625  -9.1839  -9.1838  -9.0975  -9.0699
    -9.0699  -9.0560  -8.4700  -8.4700  -7.8995  -7.8994  -7.8664  -7.7847
    -7.6831  -7.2588  -7.2587  -6.9439  -6.9340  -6.8976  -6.7463  -6.6907
    -6.6876  -6.6748  -6.5965  -6.5963  -6.5514  -6.4396  -6.4394  -6.3969
    -6.3925  -6.3923  -6.3389  -6.2806  -5.2653  -5.2652  -5.1268  -5.1261
    -4.9504  -4.9501  -4.8416  -4.7533  -4.6078  -4.5922  -4.5913  -4.2333
    -3.9688  -3.9687  -3.7319  -3.7315  -3.6448  -3.6345  -3.5047  -3.5046
    -2.8933  -2.2370  -2.2364  -2.2094  -2.2093  -1.7104  -1.6822  -1.6818
    -0.5508  -0.1402  -0.1401   0.8678   1.0758   1.0815   1.0827   1.8169
     2.0748   2.0749   2.6173   2.9214   2.9226   2.9849   3.4970   3.5043
     3.5653   3.7601   3.7745   3.8267   3.8885   4.0272   4.0276

     occupation numbers 
     1.0000   1.0000   1.0000   1.0000   1.0000   1.0000   1.0000   1.0000
     1.0000   1.0000   1.0000   1.0000   1.0000   1.0000   1.0000   1.0000
     1.0000   1.0000   1.0000   1.0000   1.0000   1.0000   1.0000   1.0000
     1.0000   1.0000   1.0000   1.0000   1.0000   1.0000   1.0000   1.0000
     1.0000   1.0000   1.0000   1.0000   1.0000   1.0000   1.0000   1.0000
     1.0000   1.0000   1.0000   1.0000   1.0000   1.0000   1.0000   1.0000
     1.0000   1.0000   1.0000   1.0000   1.0000   1.0000   1.0000   1.0000
     1.0000   1.0000   1.0000   1.0000   1.0000   1.0000   1.0000   1.0000
     1.0000   1.0000   1.0000   1.0000   1.0000   1.0000   1.0000   1.0000
     1.0000   1.0000   1.0000   1.0000   1.0000   1.0000   1.0000   1.0000
     1.0000   1.0000   1.0000   1.0000   1.0000   1.0000   1.0000   1.0000
     1.0000   1.0000   1.0000   1.0000   1.0000   1.0000   1.0000   1.0000
     1.0000   1.0000   1.0000   1.0000   1.0000   1.0000   1.0000   1.0000
     1.0000   0.2521   0.2479   0.0000   0.0000   0.0000   0.0000   0.0000
     0.0000   0.0000   0.0000   0.0000   0.0000   0.0000   0.0000   0.0000
     0.0000   0.0000   0.0000   0.0000   0.0000   0.0000   0.0000

     the Fermi energy is    -0.1435 ev

!    total energy              =    -757.32705015 Ry
     Harris-Foulkes estimate   =    -757.32705002 Ry
     estimated scf accuracy    <       0.00000007 Ry

     The total energy is the sum of the following terms:

     one-electron contribution =   -2572.94316977 Ry
     hartree contribution      =    1333.22653426 Ry
     xc contribution           =    -252.65638039 Ry
     ewald contribution        =     735.04657923 Ry
     smearing contrib. (-TS)   =      -0.00061348 Ry

     convergence has been achieved in  18 iterations

     Writing output data file gr-12-sixhollow.save/

     init_run     :     47.04s CPU     48.22s WALL (       1 calls)
     electrons    :    952.41s CPU    981.96s WALL (       1 calls)

     Called by init_run:
     wfcinit      :     20.65s CPU     20.83s WALL (       1 calls)
     wfcinit:atom :      0.02s CPU      0.04s WALL (       1 calls)
     wfcinit:wfcr :     20.46s CPU     20.57s WALL (       1 calls)
     potinit      :     11.58s CPU     12.05s WALL (       1 calls)
     hinit0       :     10.00s CPU     10.04s WALL (       1 calls)

     Called by electrons:
     c_bands      :    585.67s CPU    589.23s WALL (      18 calls)
     sum_band     :    181.10s CPU    191.17s WALL (      18 calls)
     v_of_rho     :    114.49s CPU    121.70s WALL (      19 calls)
     v_h          :      1.30s CPU      1.36s WALL (      19 calls)
     v_xc         :    113.19s CPU    120.34s WALL (      19 calls)
     newd         :     75.82s CPU     85.23s WALL (      19 calls)
     mix_rho      :      3.41s CPU      3.50s WALL (      18 calls)

     Called by c_bands:
     init_us_2    :      1.52s CPU      1.58s WALL (      37 calls)
     cegterg      :    581.51s CPU    585.06s WALL (      18 calls)

     Called by sum_band:
     sum_band:bec :      0.01s CPU      0.01s WALL (      18 calls)
     addusdens    :    110.36s CPU    119.85s WALL (      18 calls)

     Called by *egterg:
     h_psi        :    309.48s CPU    312.04s WALL (     100 calls)
     s_psi        :    103.74s CPU    103.80s WALL (     100 calls)
     g_psi        :      0.33s CPU      0.33s WALL (      81 calls)
     cdiaghg      :      7.11s CPU      7.11s WALL (      99 calls)
     cegterg:over :     71.93s CPU     71.98s WALL (      81 calls)
     cegterg:upda :     45.71s CPU     46.02s WALL (      81 calls)
     cegterg:last :     29.74s CPU     29.75s WALL (      18 calls)

     Called by h_psi:
     h_psi:pot    :    309.10s CPU    311.28s WALL (     100 calls)
     h_psi:calbec :    103.69s CPU    103.77s WALL (     100 calls)
     vloc_psi     :    101.47s CPU    103.50s WALL (     100 calls)
     add_vuspsi   :    103.93s CPU    104.01s WALL (     100 calls)

     General routines
     calbec       :    146.18s CPU    146.28s WALL (     118 calls)
     fft          :     63.85s CPU     66.56s WALL (    1195 calls)
     ffts         :      0.65s CPU      0.67s WALL (      37 calls)
     fftw         :    107.23s CPU    109.45s WALL (   13456 calls)
     interpolate  :      1.54s CPU      1.60s WALL (      19 calls)

     Parallel routines
     fft_scatt_xy :     29.54s CPU     29.95s WALL (   14688 calls)
     fft_scatt_yz :     58.84s CPU     62.38s WALL (   14688 calls)

     PWSCF        :  16m40.65s CPU  17m11.64s WALL


   This run was terminated on:   4: 0:46  21Jul2022            

=------------------------------------------------------------------------------=
   JOB DONE.
=------------------------------------------------------------------------------=
