
     Program PWSCF v.6.4.1 starts on  6Jan2023 at 16:25:22 

     This program is part of the open-source Quantum ESPRESSO suite
     for quantum simulation of materials; please cite
         "P. Giannozzi et al., J. Phys.:Condens. Matter 21 395502 (2009);
         "P. Giannozzi et al., J. Phys.:Condens. Matter 29 465901 (2017);
          URL http://www.quantum-espresso.org", 
     in publications or presentations arising from this work. More details at
     http://www.quantum-espresso.org/quote

     Parallel version (MPI), running on     6 processors

     MPI processes distributed on     1 nodes
     R & G space division:  proc/nbgrp/npool/nimage =       6
     Reading input from distance-2.0.in

     Current dimensions of program PWSCF are:
     Max number of different atomic species (ntypx) = 10
     Max number of k-points (npk) =  40000
     Max angular momentum in pseudopotentials (lmaxx) =  3

     IMPORTANT: XC functional enforced from input :
     Exchange-correlation      = RVV10 ( 1  4 13  4 3 0)
     Any further DFT definition will be discarded
     Please, verify this is what you really want

               file H.pbe-rrkjus.UPF: wavefunction(s)  1S renormalized

     Subspace diagonalization in iterative solution of the eigenvalue problem:
     a serial algorithm will be used


     Parallelization info
     --------------------
     sticks:   dense  smooth     PW     G-vecs:    dense   smooth      PW
     Min        3051    1746    432               270999   117096   14629
     Max        3053    1747    437               271001   117099   14630
     Sum       18313   10477   2611              1626001   702581   87777



     bravais-lattice index     =            4
     lattice parameter (alat)  =      23.2937  a.u.
     unit-cell volume          =    8879.8548 (a.u.)^3
     number of atoms/cell      =           52
     number of atomic types    =            3
     number of electrons       =       216.00
     number of Kohn-Sham states=          130
     kinetic-energy cutoff     =      70.0000  Ry
     charge density cutoff     =     490.0000  Ry
     convergence threshold     =      1.0E-06
     mixing beta               =       0.7000
     number of iterations used =            8  plain     mixing
     Exchange-correlation      = RVV10 ( 1  4 13  4 3 0)

     celldm(1)=  23.293684  celldm(2)=   0.000000  celldm(3)=   0.811261
     celldm(4)=   0.000000  celldm(5)=   0.000000  celldm(6)=   0.000000

     crystal axes: (cart. coord. in units of alat)
               a(1) = (   1.000000   0.000000   0.000000 )  
               a(2) = (  -0.500000   0.866025   0.000000 )  
               a(3) = (   0.000000   0.000000   0.811261 )  

     reciprocal axes: (cart. coord. in units 2 pi/alat)
               b(1) = (  1.000000  0.577350 -0.000000 )  
               b(2) = (  0.000000  1.154701  0.000000 )  
               b(3) = (  0.000000 -0.000000  1.232649 )  


     PseudoPot. # 1 for H  read from file:
     /home/cristian/Escritorio/Proyecto_Grafeno/pseudopotenciales/H.pbe-rrkjus.UPF
     MD5 check sum: 7cc9d459525c9a0585f487a71c3c9563
     Pseudo is Ultrasoft, Zval =  1.0
     Generated by new atomic code, or converted to UPF format
     Using radial grid of 1061 points,  2 beta functions with: 
                l(1) =   0
                l(2) =   0
     Q(r) pseudized with 0 coefficients 


     PseudoPot. # 2 for C  read from file:
     /home/cristian/Escritorio/Proyecto_Grafeno/pseudopotenciales/C.pbe-n-rrkjus_psl.1.0.0.UPF
     MD5 check sum: 1fdd950c42eb37d8afe3dd2f8d12311e
     Pseudo is Ultrasoft + core correction, Zval =  4.0
     Generated using "atomic" code by A. Dal Corso v.6.3MaX
     Using radial grid of 1073 points,  4 beta functions with: 
                l(1) =   0
                l(2) =   0
                l(3) =   1
                l(4) =   1
     Q(r) pseudized with 0 coefficients 


     PseudoPot. # 3 for Ni read from file:
     /home/cristian/Escritorio/Proyecto_Grafeno/pseudopotenciales/Ni.pbe-spn-rrkjus_psl.1.0.0.UPF
     MD5 check sum: 8b3fc9aac6dafe35f580d41bb18c3945
     Pseudo is Ultrasoft + core correction, Zval = 18.0
     Generated using "atomic" code by A. Dal Corso v.6.3
     Using radial grid of 1195 points,  6 beta functions with: 
                l(1) =   0
                l(2) =   0
                l(3) =   1
                l(4) =   1
                l(5) =   2
                l(6) =   2
     Q(r) pseudized with 0 coefficients 


     vdW kernel table read from file rVV10_kernel_table
     MD5 check sum: b8e2538accc0c0b3206b45ba4daaba6c

     atomic species   valence    mass     pseudopotential
        H              1.00     1.00794     H ( 1.00)
        C              4.00    12.01070     C ( 1.00)
        Ni            18.00    58.69340     Ni( 1.00)

     Starting magnetic structure 
     atomic species   magnetization
        H            0.500
        C            0.300
        Ni           0.800

     No symmetry found


                                    s                        frac. trans.

      isym =  1     identity                                     

 cryst.   s( 1) = (     1          0          0      )
                  (     0          1          0      )
                  (     0          0          1      )

 cart.    s( 1) = (  1.0000000  0.0000000  0.0000000 )
                  (  0.0000000  1.0000000  0.0000000 )
                  (  0.0000000  0.0000000  1.0000000 )


     point group C_1 (1)    
     there are  1 classes
     the character table:

       E    
A      1.00

     the symmetry operations in each class and the name of the first element:

     E        1
          identity                                               

   Cartesian axes

     site n.     atom                  positions (alat units)
         1           H   tau(   1) = (   0.2361603   0.4618802   0.1622522  )
         2           H   tau(   2) = (   0.2971730   0.4618802   0.1622522  )
         3           C   tau(   3) = (   0.0000000   0.0000000   0.0000000  )
         4           C   tau(   4) = (   0.0000000   0.1154701   0.0000000  )
         5           C   tau(   5) = (  -0.1000000   0.1732051   0.0000000  )
         6           C   tau(   6) = (  -0.1000000   0.2886751   0.0000000  )
         7           C   tau(   7) = (  -0.2000000   0.3464102   0.0000000  )
         8           C   tau(   8) = (  -0.2000000   0.4618802   0.0000000  )
         9           C   tau(   9) = (  -0.3000000   0.5196152   0.0000000  )
        10           C   tau(  10) = (  -0.3000000   0.6350853   0.0000000  )
        11           C   tau(  11) = (  -0.4000000   0.6928203   0.0000000  )
        12           C   tau(  12) = (  -0.4000000   0.8082904   0.0000000  )
        13           C   tau(  13) = (   0.2000000   0.0000000   0.0000000  )
        14           C   tau(  14) = (   0.2000000   0.1154701   0.0000000  )
        15           C   tau(  15) = (   0.1000000   0.1732051   0.0000000  )
        16           C   tau(  16) = (   0.1000000   0.2886751   0.0000000  )
        17           C   tau(  17) = (   0.0000000   0.3464102   0.0000000  )
        18           C   tau(  18) = (   0.0000000   0.4618802   0.0000000  )
        19           C   tau(  19) = (  -0.1000000   0.5196152   0.0000000  )
        20           C   tau(  20) = (  -0.1000000   0.6350853   0.0000000  )
        21           C   tau(  21) = (  -0.2000000   0.6928203   0.0000000  )
        22           C   tau(  22) = (  -0.2000000   0.8082904   0.0000000  )
        23           C   tau(  23) = (   0.4000000   0.0000000   0.0000000  )
        24           C   tau(  24) = (   0.4000000   0.1154701   0.0000000  )
        25           C   tau(  25) = (   0.3000000   0.1732051   0.0000000  )
        26           C   tau(  26) = (   0.3000000   0.2886751   0.0000000  )
        27           C   tau(  27) = (   0.2000000   0.3464102   0.0000000  )
        28           Ni  tau(  28) = (   0.2000000   0.4618802   0.0000000  )
        29           C   tau(  29) = (   0.1000000   0.5196152   0.0000000  )
        30           C   tau(  30) = (   0.1000000   0.6350853   0.0000000  )
        31           C   tau(  31) = (   0.0000000   0.6928203   0.0000000  )
        32           C   tau(  32) = (   0.0000000   0.8082904   0.0000000  )
        33           C   tau(  33) = (   0.6000000   0.0000000   0.0000000  )
        34           C   tau(  34) = (   0.6000000   0.1154701   0.0000000  )
        35           C   tau(  35) = (   0.5000000   0.1732051   0.0000000  )
        36           C   tau(  36) = (   0.5000000   0.2886751   0.0000000  )
        37           C   tau(  37) = (   0.4000000   0.3464102   0.0000000  )
        38           C   tau(  38) = (   0.4000000   0.4618802   0.0000000  )
        39           C   tau(  39) = (   0.3000000   0.5196152   0.0000000  )
        40           C   tau(  40) = (   0.3000000   0.6350853   0.0000000  )
        41           C   tau(  41) = (   0.2000000   0.6928203   0.0000000  )
        42           C   tau(  42) = (   0.2000000   0.8082904   0.0000000  )
        43           C   tau(  43) = (   0.8000000   0.0000000   0.0000000  )
        44           C   tau(  44) = (   0.8000000   0.1154701   0.0000000  )
        45           C   tau(  45) = (   0.7000000   0.1732051   0.0000000  )
        46           C   tau(  46) = (   0.7000000   0.2886751   0.0000000  )
        47           C   tau(  47) = (   0.6000000   0.3464102   0.0000000  )
        48           C   tau(  48) = (   0.6000000   0.4618802   0.0000000  )
        49           C   tau(  49) = (   0.5000000   0.5196152   0.0000000  )
        50           C   tau(  50) = (   0.5000000   0.6350853   0.0000000  )
        51           C   tau(  51) = (   0.4000000   0.6928203   0.0000000  )
        52           C   tau(  52) = (   0.4000000   0.8082904   0.0000000  )

   Crystallographic axes

     site n.     atom                  positions (cryst. coord.)
         1           H   tau(   1) = (  0.5028270  0.5333333  0.2000000  )
         2           H   tau(   2) = (  0.5638397  0.5333333  0.2000000  )
         3           C   tau(   3) = (  0.0000000  0.0000000  0.0000000  )
         4           C   tau(   4) = (  0.0666667  0.1333333  0.0000000  )
         5           C   tau(   5) = (  0.0000000  0.2000000  0.0000000  )
         6           C   tau(   6) = (  0.0666667  0.3333333  0.0000000  )
         7           C   tau(   7) = (  0.0000000  0.4000000  0.0000000  )
         8           C   tau(   8) = (  0.0666667  0.5333333  0.0000000  )
         9           C   tau(   9) = (  0.0000000  0.6000000  0.0000000  )
        10           C   tau(  10) = (  0.0666667  0.7333333  0.0000000  )
        11           C   tau(  11) = (  0.0000000  0.8000000  0.0000000  )
        12           C   tau(  12) = (  0.0666667  0.9333333  0.0000000  )
        13           C   tau(  13) = (  0.2000000  0.0000000  0.0000000  )
        14           C   tau(  14) = (  0.2666667  0.1333333  0.0000000  )
        15           C   tau(  15) = (  0.2000000  0.2000000  0.0000000  )
        16           C   tau(  16) = (  0.2666667  0.3333333  0.0000000  )
        17           C   tau(  17) = (  0.2000000  0.4000000  0.0000000  )
        18           C   tau(  18) = (  0.2666667  0.5333333  0.0000000  )
        19           C   tau(  19) = (  0.2000000  0.6000000  0.0000000  )
        20           C   tau(  20) = (  0.2666667  0.7333333  0.0000000  )
        21           C   tau(  21) = (  0.2000000  0.8000000  0.0000000  )
        22           C   tau(  22) = (  0.2666667  0.9333333  0.0000000  )
        23           C   tau(  23) = (  0.4000000  0.0000000  0.0000000  )
        24           C   tau(  24) = (  0.4666667  0.1333333  0.0000000  )
        25           C   tau(  25) = (  0.4000000  0.2000000  0.0000000  )
        26           C   tau(  26) = (  0.4666667  0.3333333  0.0000000  )
        27           C   tau(  27) = (  0.4000000  0.4000000  0.0000000  )
        28           Ni  tau(  28) = (  0.4666667  0.5333333  0.0000000  )
        29           C   tau(  29) = (  0.4000000  0.6000000  0.0000000  )
        30           C   tau(  30) = (  0.4666667  0.7333333  0.0000000  )
        31           C   tau(  31) = (  0.4000000  0.8000000  0.0000000  )
        32           C   tau(  32) = (  0.4666667  0.9333333  0.0000000  )
        33           C   tau(  33) = (  0.6000000  0.0000000  0.0000000  )
        34           C   tau(  34) = (  0.6666667  0.1333333  0.0000000  )
        35           C   tau(  35) = (  0.6000000  0.2000000  0.0000000  )
        36           C   tau(  36) = (  0.6666667  0.3333333  0.0000000  )
        37           C   tau(  37) = (  0.6000000  0.4000000  0.0000000  )
        38           C   tau(  38) = (  0.6666667  0.5333333  0.0000000  )
        39           C   tau(  39) = (  0.6000000  0.6000000  0.0000000  )
        40           C   tau(  40) = (  0.6666667  0.7333333  0.0000000  )
        41           C   tau(  41) = (  0.6000000  0.8000000  0.0000000  )
        42           C   tau(  42) = (  0.6666667  0.9333333  0.0000000  )
        43           C   tau(  43) = (  0.8000000  0.0000000  0.0000000  )
        44           C   tau(  44) = (  0.8666667  0.1333333  0.0000000  )
        45           C   tau(  45) = (  0.8000000  0.2000000  0.0000000  )
        46           C   tau(  46) = (  0.8666667  0.3333333  0.0000000  )
        47           C   tau(  47) = (  0.8000000  0.4000000  0.0000000  )
        48           C   tau(  48) = (  0.8666667  0.5333333  0.0000000  )
        49           C   tau(  49) = (  0.8000000  0.6000000  0.0000000  )
        50           C   tau(  50) = (  0.8666667  0.7333333  0.0000000  )
        51           C   tau(  51) = (  0.8000000  0.8000000  0.0000000  )
        52           C   tau(  52) = (  0.8666667  0.9333333  0.0000000  )

     number of k points=     1  Marzari-Vanderbilt smearing, width (Ry)=  0.0010
                       cart. coord. in units 2pi/alat
        k(    1) = (   0.0000000   0.0000000   0.0000000), wk =   1.0000000

                       cryst. coord.
        k(    1) = (   0.0000000   0.0000000   0.0000000), wk =   1.0000000

     Dense  grid:  1626001 G-vectors     FFT dimensions: ( 180, 180, 135)

     Smooth grid:   702581 G-vectors     FFT dimensions: ( 125, 125, 108)

     Dynamical RAM for                 wfc:      29.03 MB

     Dynamical RAM for     wfc (w. buffer):      87.10 MB

     Dynamical RAM for           str. fact:      12.41 MB

     Dynamical RAM for           local pot:       0.00 MB

     Dynamical RAM for          nlocal pot:      92.46 MB

     Dynamical RAM for                qrad:      19.73 MB

     Dynamical RAM for          rho,v,vnew:      58.92 MB

     Dynamical RAM for               rhoin:      19.64 MB

     Dynamical RAM for            rho*nmix:     132.32 MB

     Dynamical RAM for           G-vectors:      16.40 MB

     Dynamical RAM for          h,s,v(r/c):      12.38 MB

     Dynamical RAM for          <psi|beta>:       0.82 MB

     Dynamical RAM for                 psi:     116.14 MB

     Dynamical RAM for                hpsi:     116.14 MB

     Dynamical RAM for                spsi:     116.14 MB

     Dynamical RAM for      wfcinit/wfcrot:      93.90 MB

     Dynamical RAM for           addusdens:     975.89 MB

     Estimated static dynamical RAM per process >     489.64 MB

     Estimated max dynamical RAM per process >       1.43 GB

     Estimated total dynamical RAM >       8.59 GB
     Generating pointlists ...
     new r_m :   0.0252 (alat units)  0.5862 (a.u.) for type    1
     new r_m :   0.0476 (alat units)  1.1095 (a.u.) for type    2
     new r_m :   0.0476 (alat units)  1.1095 (a.u.) for type    3

     Check: negative core charge=   -0.000002

     Initial potential from superposition of free atoms

     starting charge  215.80530, renormalised to  216.00000

     negative rho (up, down):  1.802E-04 1.983E-02


---------------------------------------------------------------------------------
Carrying out rVV10 run using the following parameters:
Nqs =      20    Nr_points =    1024   r_max =   100.000
b_value =  6.30000    beta =  0.00901
     q_mesh =  0.00010000  0.00030000  0.00058939  0.00100810
               0.00161396  0.00249058  0.00375900  0.00559430
               0.00824984  0.01209221  0.01765183  0.02569619
               0.03733578  0.05417739  0.07854596  0.11380545
               0.16482331  0.23864234  0.34545298  0.50000000

Gradients computed in Reciprocal space

---------------------------------------------------------------------------------


     Starting wfcs are  208 randomized atomic wfcs

     total cpu time spent up to now is       69.6 secs

     Self-consistent Calculation

     iteration #  1     ecut=    70.00 Ry     beta= 0.70
     Davidson diagonalization with overlap
     ethr =  1.00E-02,  avg # of iterations =  6.5

     negative rho (up, down):  3.576E-04 1.720E-02

     total cpu time spent up to now is      195.6 secs

     total energy              =    -946.94448550 Ry
     Harris-Foulkes estimate   =    -949.63772826 Ry
     estimated scf accuracy    <      13.95417921 Ry

     total magnetization       =     6.00 Bohr mag/cell
     absolute magnetization    =     6.71 Bohr mag/cell

     iteration #  2     ecut=    70.00 Ry     beta= 0.70
     Davidson diagonalization with overlap
     ethr =  6.46E-03,  avg # of iterations =  4.0

     negative rho (up, down):  2.050E-02 3.500E-01

     total cpu time spent up to now is      307.6 secs

     total energy              =    -952.85694934 Ry
     Harris-Foulkes estimate   =    -955.92331896 Ry
     estimated scf accuracy    <      43.64492534 Ry

     total magnetization       =     4.00 Bohr mag/cell
     absolute magnetization    =    10.06 Bohr mag/cell

     iteration #  3     ecut=    70.00 Ry     beta= 0.70
     Davidson diagonalization with overlap
     ethr =  6.46E-03,  avg # of iterations =  3.0

     negative rho (up, down):  1.599E-02 5.501E-01

     total cpu time spent up to now is      407.9 secs

     total energy              =    -946.24468117 Ry
     Harris-Foulkes estimate   =    -965.59506685 Ry
     estimated scf accuracy    <     755.17292592 Ry

     total magnetization       =     0.00 Bohr mag/cell
     absolute magnetization    =    40.06 Bohr mag/cell

     iteration #  4     ecut=    70.00 Ry     beta= 0.70
     Davidson diagonalization with overlap
     ethr =  6.46E-03,  avg # of iterations =  3.0

     negative rho (up, down):  2.452E-02 5.062E-01

     total cpu time spent up to now is      510.1 secs

     total energy              =    -949.02146430 Ry
     Harris-Foulkes estimate   =    -952.90509651 Ry
     estimated scf accuracy    <      82.93093288 Ry

     total magnetization       =     0.00 Bohr mag/cell
     absolute magnetization    =    13.89 Bohr mag/cell

     iteration #  5     ecut=    70.00 Ry     beta= 0.70
     Davidson diagonalization with overlap
     ethr =  6.46E-03,  avg # of iterations =  3.0

     negative rho (up, down):  7.562E-02 4.968E-01

     total cpu time spent up to now is      625.6 secs

     total energy              =    -947.93216204 Ry
     Harris-Foulkes estimate   =    -960.12318683 Ry
     estimated scf accuracy    <     515.37369481 Ry

     total magnetization       =     2.00 Bohr mag/cell
     absolute magnetization    =    34.73 Bohr mag/cell

     iteration #  6     ecut=    70.00 Ry     beta= 0.70
     Davidson diagonalization with overlap
     ethr =  6.46E-03,  avg # of iterations =  2.0

     negative rho (up, down):  7.064E-02 4.634E-01

     total cpu time spent up to now is      731.6 secs

     total energy              =    -948.33360686 Ry
     Harris-Foulkes estimate   =    -953.14729317 Ry
     estimated scf accuracy    <     134.69117917 Ry

     total magnetization       =     2.00 Bohr mag/cell
     absolute magnetization    =    18.37 Bohr mag/cell

     iteration #  7     ecut=    70.00 Ry     beta= 0.70
     Davidson diagonalization with overlap
     ethr =  6.46E-03,  avg # of iterations =  2.0

     negative rho (up, down):  2.851E-02 2.632E-01

     total cpu time spent up to now is      831.2 secs

     total energy              =    -951.94130399 Ry
     Harris-Foulkes estimate   =    -951.78763034 Ry
     estimated scf accuracy    <      15.32682592 Ry

     total magnetization       =    -0.00 Bohr mag/cell
     absolute magnetization    =     5.51 Bohr mag/cell

     iteration #  8     ecut=    70.00 Ry     beta= 0.70
     Davidson diagonalization with overlap
     ethr =  6.46E-03,  avg # of iterations =  2.5

     negative rho (up, down):  4.798E-02 4.556E-01

     total cpu time spent up to now is      927.4 secs

     total energy              =    -950.08522263 Ry
     Harris-Foulkes estimate   =    -953.63981370 Ry
     estimated scf accuracy    <     126.76717634 Ry

     total magnetization       =    -0.00 Bohr mag/cell
     absolute magnetization    =    17.43 Bohr mag/cell

     iteration #  9     ecut=    70.00 Ry     beta= 0.70
     Davidson diagonalization with overlap
     ethr =  6.46E-03,  avg # of iterations =  2.0

     negative rho (up, down):  5.425E-02 3.643E-01

     total cpu time spent up to now is     1022.5 secs

     total energy              =    -951.58187105 Ry
     Harris-Foulkes estimate   =    -951.75551511 Ry
     estimated scf accuracy    <       7.05571811 Ry

     total magnetization       =     0.00 Bohr mag/cell
     absolute magnetization    =     3.25 Bohr mag/cell

     iteration # 10     ecut=    70.00 Ry     beta= 0.70
     Davidson diagonalization with overlap
     ethr =  3.27E-03,  avg # of iterations =  2.0

     negative rho (up, down):  2.275E-02 2.971E-01

     total cpu time spent up to now is     1113.8 secs

     total energy              =    -951.62293143 Ry
     Harris-Foulkes estimate   =    -951.86162639 Ry
     estimated scf accuracy    <       3.15560915 Ry

     total magnetization       =     0.00 Bohr mag/cell
     absolute magnetization    =     1.54 Bohr mag/cell

     iteration # 11     ecut=    70.00 Ry     beta= 0.70
     Davidson diagonalization with overlap
     ethr =  1.46E-03,  avg # of iterations =  3.0

     negative rho (up, down):  2.798E-02 1.003E-01

     total cpu time spent up to now is     1207.0 secs

     total energy              =    -951.72758510 Ry
     Harris-Foulkes estimate   =    -951.86709083 Ry
     estimated scf accuracy    <       2.06496839 Ry

     total magnetization       =    -0.00 Bohr mag/cell
     absolute magnetization    =     1.23 Bohr mag/cell

     iteration # 12     ecut=    70.00 Ry     beta= 0.70
     Davidson diagonalization with overlap
     ethr =  9.56E-04,  avg # of iterations =  2.0

     negative rho (up, down):  8.953E-03 1.993E-01

     total cpu time spent up to now is     1298.4 secs

     total energy              =    -951.77730372 Ry
     Harris-Foulkes estimate   =    -951.84432984 Ry
     estimated scf accuracy    <       0.62055285 Ry

     total magnetization       =    -0.00 Bohr mag/cell
     absolute magnetization    =     0.72 Bohr mag/cell

     iteration # 13     ecut=    70.00 Ry     beta= 0.70
     Davidson diagonalization with overlap
     ethr =  2.87E-04,  avg # of iterations =  4.5

     negative rho (up, down):  4.114E-03 1.711E-01

     total cpu time spent up to now is     1390.6 secs

     total energy              =    -951.80157074 Ry
     Harris-Foulkes estimate   =    -951.82473376 Ry
     estimated scf accuracy    <       0.26092392 Ry

     total magnetization       =     0.00 Bohr mag/cell
     absolute magnetization    =     0.67 Bohr mag/cell

     iteration # 14     ecut=    70.00 Ry     beta= 0.70
     Davidson diagonalization with overlap
     ethr =  1.21E-04,  avg # of iterations =  6.0

     negative rho (up, down):  9.281E-03 7.485E-02

     total cpu time spent up to now is     1489.0 secs

     total energy              =    -951.79739955 Ry
     Harris-Foulkes estimate   =    -951.83918667 Ry
     estimated scf accuracy    <       0.37944604 Ry

     total magnetization       =     0.00 Bohr mag/cell
     absolute magnetization    =     0.31 Bohr mag/cell

     iteration # 15     ecut=    70.00 Ry     beta= 0.70
     Davidson diagonalization with overlap
     ethr =  1.21E-04,  avg # of iterations =  2.0

     negative rho (up, down):  3.469E-03 3.256E-01

     total cpu time spent up to now is     1584.8 secs

     total energy              =    -951.80199109 Ry
     Harris-Foulkes estimate   =    -951.83875321 Ry
     estimated scf accuracy    <       1.24244632 Ry

     total magnetization       =    -0.00 Bohr mag/cell
     absolute magnetization    =     1.70 Bohr mag/cell

     iteration # 16     ecut=    70.00 Ry     beta= 0.70
     Davidson diagonalization with overlap
     ethr =  1.21E-04,  avg # of iterations =  2.0

     negative rho (up, down):  3.690E-03 2.405E-01

     total cpu time spent up to now is     1678.5 secs

     total energy              =    -951.81706143 Ry
     Harris-Foulkes estimate   =    -951.81665793 Ry
     estimated scf accuracy    <       0.10085243 Ry

     total magnetization       =    -0.00 Bohr mag/cell
     absolute magnetization    =     0.49 Bohr mag/cell

     iteration # 17     ecut=    70.00 Ry     beta= 0.70
     Davidson diagonalization with overlap
     ethr =  4.67E-05,  avg # of iterations =  2.0

     negative rho (up, down):  1.506E-03 2.282E-01

     total cpu time spent up to now is     1769.5 secs

     total energy              =    -951.82223653 Ry
     Harris-Foulkes estimate   =    -951.81902289 Ry
     estimated scf accuracy    <       0.05439769 Ry

     total magnetization       =    -0.00 Bohr mag/cell
     absolute magnetization    =     0.38 Bohr mag/cell

     iteration # 18     ecut=    70.00 Ry     beta= 0.70
     Davidson diagonalization with overlap
     ethr =  2.52E-05,  avg # of iterations =  2.5

     negative rho (up, down):  1.815E-03 3.283E-01

     total cpu time spent up to now is     1873.0 secs

     total energy              =    -951.80144690 Ry
     Harris-Foulkes estimate   =    -951.83629957 Ry
     estimated scf accuracy    <       1.02592305 Ry

     total magnetization       =     0.00 Bohr mag/cell
     absolute magnetization    =     1.56 Bohr mag/cell

     iteration # 19     ecut=    70.00 Ry     beta= 0.70
     Davidson diagonalization with overlap
     ethr =  2.52E-05,  avg # of iterations =  5.0

     negative rho (up, down):  1.233E-03 2.728E-01

     total cpu time spent up to now is     1979.5 secs

     total energy              =    -951.82107348 Ry
     Harris-Foulkes estimate   =    -951.81586904 Ry
     estimated scf accuracy    <       0.05565768 Ry

     total magnetization       =     0.00 Bohr mag/cell
     absolute magnetization    =     0.39 Bohr mag/cell

     iteration # 20     ecut=    70.00 Ry     beta= 0.70
     Davidson diagonalization with overlap
     ethr =  2.52E-05,  avg # of iterations =  2.0

     negative rho (up, down):  1.583E-03 2.755E-01

     total cpu time spent up to now is     2070.7 secs

     total energy              =    -951.82083986 Ry
     Harris-Foulkes estimate   =    -951.82188606 Ry
     estimated scf accuracy    <       0.15273227 Ry

     total magnetization       =     0.00 Bohr mag/cell
     absolute magnetization    =     0.62 Bohr mag/cell

     iteration # 21     ecut=    70.00 Ry     beta= 0.70
     Davidson diagonalization with overlap
     ethr =  2.52E-05,  avg # of iterations =  1.5

     negative rho (up, down):  5.172E-03 2.268E-01

     total cpu time spent up to now is     2161.9 secs

     total energy              =    -951.81635757 Ry
     Harris-Foulkes estimate   =    -951.82207447 Ry
     estimated scf accuracy    <       0.16033496 Ry

     total magnetization       =    -0.00 Bohr mag/cell
     absolute magnetization    =     0.54 Bohr mag/cell

     iteration # 22     ecut=    70.00 Ry     beta= 0.70
     Davidson diagonalization with overlap
     ethr =  2.52E-05,  avg # of iterations =  2.0

     negative rho (up, down):  2.574E-03 1.961E-01

     total cpu time spent up to now is     2252.7 secs

     total energy              =    -951.81955622 Ry
     Harris-Foulkes estimate   =    -951.81906857 Ry
     estimated scf accuracy    <       0.02304640 Ry

     total magnetization       =    -0.00 Bohr mag/cell
     absolute magnetization    =     0.21 Bohr mag/cell

     iteration # 23     ecut=    70.00 Ry     beta= 0.70
     Davidson diagonalization with overlap
     ethr =  1.07E-05,  avg # of iterations =  2.5

     negative rho (up, down):  1.705E-03 1.485E-01

     total cpu time spent up to now is     2344.7 secs

     total energy              =    -951.81946670 Ry
     Harris-Foulkes estimate   =    -951.82063541 Ry
     estimated scf accuracy    <       0.01969322 Ry

     total magnetization       =     0.06 Bohr mag/cell
     absolute magnetization    =     0.20 Bohr mag/cell

     iteration # 24     ecut=    70.00 Ry     beta= 0.70
     Davidson diagonalization with overlap
     ethr =  9.12E-06,  avg # of iterations =  3.0

     negative rho (up, down):  1.276E-03 9.667E-02

     total cpu time spent up to now is     2436.9 secs

     total energy              =    -951.82080908 Ry
     Harris-Foulkes estimate   =    -951.82052604 Ry
     estimated scf accuracy    <       0.00217209 Ry

     total magnetization       =     0.10 Bohr mag/cell
     absolute magnetization    =     0.16 Bohr mag/cell

     iteration # 25     ecut=    70.00 Ry     beta= 0.70
     Davidson diagonalization with overlap
     ethr =  1.01E-06,  avg # of iterations =  3.0

     negative rho (up, down):  2.097E-03 1.869E-01

     total cpu time spent up to now is     2547.5 secs

     total energy              =    -951.82308867 Ry
     Harris-Foulkes estimate   =    -951.82276078 Ry
     estimated scf accuracy    <       0.07365393 Ry

     total magnetization       =     0.15 Bohr mag/cell
     absolute magnetization    =     0.52 Bohr mag/cell

     iteration # 26     ecut=    70.00 Ry     beta= 0.70
     Davidson diagonalization with overlap
     ethr =  1.01E-06,  avg # of iterations =  3.5

     negative rho (up, down):  2.964E-03 2.459E-01

     total cpu time spent up to now is     2650.1 secs

     total energy              =    -951.81710973 Ry
     Harris-Foulkes estimate   =    -951.82354609 Ry
     estimated scf accuracy    <       0.17821372 Ry

     total magnetization       =     0.12 Bohr mag/cell
     absolute magnetization    =     0.71 Bohr mag/cell

     iteration # 27     ecut=    70.00 Ry     beta= 0.70
     Davidson diagonalization with overlap
     ethr =  1.01E-06,  avg # of iterations =  4.0

     negative rho (up, down):  4.345E-03 1.479E-01

     total cpu time spent up to now is     2764.6 secs

     total energy              =    -951.81844383 Ry
     Harris-Foulkes estimate   =    -951.82008514 Ry
     estimated scf accuracy    <       0.05200867 Ry

     total magnetization       =    -0.00 Bohr mag/cell
     absolute magnetization    =     0.22 Bohr mag/cell

     iteration # 28     ecut=    70.00 Ry     beta= 0.70
     Davidson diagonalization with overlap
     ethr =  1.01E-06,  avg # of iterations =  4.0

     negative rho (up, down):  1.353E-03 2.033E-01

     total cpu time spent up to now is     2875.1 secs

     total energy              =    -951.81980237 Ry
     Harris-Foulkes estimate   =    -951.82076135 Ry
     estimated scf accuracy    <       0.05432320 Ry

     total magnetization       =     0.00 Bohr mag/cell
     absolute magnetization    =     0.38 Bohr mag/cell

     iteration # 29     ecut=    70.00 Ry     beta= 0.70
     Davidson diagonalization with overlap
     ethr =  1.01E-06,  avg # of iterations =  4.0

     negative rho (up, down):  1.295E-03 1.245E-01

     total cpu time spent up to now is     2979.1 secs

     total energy              =    -951.82065070 Ry
     Harris-Foulkes estimate   =    -951.82039639 Ry
     estimated scf accuracy    <       0.00250739 Ry

     total magnetization       =     0.04 Bohr mag/cell
     absolute magnetization    =     0.12 Bohr mag/cell

     iteration # 30     ecut=    70.00 Ry     beta= 0.70
     Davidson diagonalization with overlap
     ethr =  1.01E-06,  avg # of iterations =  3.0

     negative rho (up, down):  2.068E-03 1.957E-01

     total cpu time spent up to now is     3084.6 secs

     total energy              =    -951.82120437 Ry
     Harris-Foulkes estimate   =    -951.82179426 Ry
     estimated scf accuracy    <       0.04688441 Ry

     total magnetization       =     0.02 Bohr mag/cell
     absolute magnetization    =     0.35 Bohr mag/cell

     iteration # 31     ecut=    70.00 Ry     beta= 0.70
     Davidson diagonalization with overlap
     ethr =  1.01E-06,  avg # of iterations =  3.5

     negative rho (up, down):  2.347E-03 2.217E-01

     total cpu time spent up to now is     3176.5 secs

     total energy              =    -951.82084532 Ry
     Harris-Foulkes estimate   =    -951.82122503 Ry
     estimated scf accuracy    <       0.04900605 Ry

     total magnetization       =     0.03 Bohr mag/cell
     absolute magnetization    =     0.37 Bohr mag/cell

     iteration # 32     ecut=    70.00 Ry     beta= 0.70
     Davidson diagonalization with overlap
     ethr =  1.01E-06,  avg # of iterations =  2.0

     negative rho (up, down):  2.345E-03 2.284E-01

     total cpu time spent up to now is     3266.1 secs

     total energy              =    -951.82006274 Ry
     Harris-Foulkes estimate   =    -951.82091357 Ry
     estimated scf accuracy    <       0.04474537 Ry

     total magnetization       =     0.02 Bohr mag/cell
     absolute magnetization    =     0.34 Bohr mag/cell

     iteration # 33     ecut=    70.00 Ry     beta= 0.70
     Davidson diagonalization with overlap
     ethr =  1.01E-06,  avg # of iterations =  2.0

     negative rho (up, down):  1.377E-03 2.022E-01

     total cpu time spent up to now is     3358.2 secs

     total energy              =    -951.82056826 Ry
     Harris-Foulkes estimate   =    -951.82035621 Ry
     estimated scf accuracy    <       0.01356553 Ry

     total magnetization       =     0.06 Bohr mag/cell
     absolute magnetization    =     0.24 Bohr mag/cell

     iteration # 34     ecut=    70.00 Ry     beta= 0.70
     Davidson diagonalization with overlap
     ethr =  1.01E-06,  avg # of iterations =  3.0

     negative rho (up, down):  1.977E-03 1.970E-01

     total cpu time spent up to now is     3460.4 secs

     total energy              =    -951.81957890 Ry
     Harris-Foulkes estimate   =    -951.82135268 Ry
     estimated scf accuracy    <       0.02647811 Ry

     total magnetization       =     0.05 Bohr mag/cell
     absolute magnetization    =     0.28 Bohr mag/cell

     iteration # 35     ecut=    70.00 Ry     beta= 0.70
     Davidson diagonalization with overlap
     ethr =  1.01E-06,  avg # of iterations =  3.0

     negative rho (up, down):  1.958E-03 1.278E-01

     total cpu time spent up to now is     3565.0 secs

     total energy              =    -951.82097146 Ry
     Harris-Foulkes estimate   =    -951.82056186 Ry
     estimated scf accuracy    <       0.00929296 Ry

     total magnetization       =     0.10 Bohr mag/cell
     absolute magnetization    =     0.24 Bohr mag/cell

     iteration # 36     ecut=    70.00 Ry     beta= 0.70
     Davidson diagonalization with overlap
     ethr =  1.01E-06,  avg # of iterations =  2.5

     negative rho (up, down):  1.689E-03 1.577E-01

     total cpu time spent up to now is     3658.4 secs

     total energy              =    -951.82040717 Ry
     Harris-Foulkes estimate   =    -951.82119343 Ry
     estimated scf accuracy    <       0.02253938 Ry

     total magnetization       =    -0.00 Bohr mag/cell
     absolute magnetization    =     0.25 Bohr mag/cell

     iteration # 37     ecut=    70.00 Ry     beta= 0.70
     Davidson diagonalization with overlap
     ethr =  1.01E-06,  avg # of iterations =  2.5

     negative rho (up, down):  1.499E-03 9.585E-02

     total cpu time spent up to now is     3756.2 secs

     total energy              =    -951.82064616 Ry
     Harris-Foulkes estimate   =    -951.82063987 Ry
     estimated scf accuracy    <       0.00354514 Ry

     total magnetization       =     0.05 Bohr mag/cell
     absolute magnetization    =     0.13 Bohr mag/cell

     iteration # 38     ecut=    70.00 Ry     beta= 0.70
     Davidson diagonalization with overlap
     ethr =  1.01E-06,  avg # of iterations =  3.0

     negative rho (up, down):  1.577E-03 2.124E-01

     total cpu time spent up to now is     3860.3 secs

     total energy              =    -951.81968738 Ry
     Harris-Foulkes estimate   =    -951.82211586 Ry
     estimated scf accuracy    <       0.07651043 Ry

     total magnetization       =     0.03 Bohr mag/cell
     absolute magnetization    =     0.47 Bohr mag/cell

     iteration # 39     ecut=    70.00 Ry     beta= 0.70
     Davidson diagonalization with overlap
     ethr =  1.01E-06,  avg # of iterations =  3.5

     negative rho (up, down):  1.900E-03 1.394E-01

     total cpu time spent up to now is     3963.8 secs

     total energy              =    -951.82029519 Ry
     Harris-Foulkes estimate   =    -951.82050047 Ry
     estimated scf accuracy    <       0.00972952 Ry

     total magnetization       =     0.00 Bohr mag/cell
     absolute magnetization    =     0.15 Bohr mag/cell

     iteration # 40     ecut=    70.00 Ry     beta= 0.70
     Davidson diagonalization with overlap
     ethr =  1.01E-06,  avg # of iterations =  2.5

     negative rho (up, down):  1.423E-03 1.063E-01

     total cpu time spent up to now is     4063.5 secs

     total energy              =    -951.82092549 Ry
     Harris-Foulkes estimate   =    -951.82067590 Ry
     estimated scf accuracy    <       0.00393153 Ry

     total magnetization       =     0.03 Bohr mag/cell
     absolute magnetization    =     0.15 Bohr mag/cell

     iteration # 41     ecut=    70.00 Ry     beta= 0.70
     Davidson diagonalization with overlap
     ethr =  1.01E-06,  avg # of iterations =  2.0

     negative rho (up, down):  1.827E-03 1.274E-01

     total cpu time spent up to now is     4158.8 secs

     total energy              =    -951.82079561 Ry
     Harris-Foulkes estimate   =    -951.82122313 Ry
     estimated scf accuracy    <       0.01390786 Ry

     total magnetization       =     0.05 Bohr mag/cell
     absolute magnetization    =     0.20 Bohr mag/cell

     iteration # 42     ecut=    70.00 Ry     beta= 0.70
     Davidson diagonalization with overlap
     ethr =  1.01E-06,  avg # of iterations =  2.0

     negative rho (up, down):  1.276E-03 1.767E-01

     total cpu time spent up to now is     4253.6 secs

     total energy              =    -951.82108764 Ry
     Harris-Foulkes estimate   =    -951.82104117 Ry
     estimated scf accuracy    <       0.01492447 Ry

     total magnetization       =     0.05 Bohr mag/cell
     absolute magnetization    =     0.25 Bohr mag/cell

     iteration # 43     ecut=    70.00 Ry     beta= 0.70
     Davidson diagonalization with overlap
     ethr =  1.01E-06,  avg # of iterations =  2.5

     negative rho (up, down):  1.268E-03 1.991E-01

     total cpu time spent up to now is     4343.5 secs

     total energy              =    -951.82083848 Ry
     Harris-Foulkes estimate   =    -951.82111156 Ry
     estimated scf accuracy    <       0.02032553 Ry

     total magnetization       =     0.04 Bohr mag/cell
     absolute magnetization    =     0.28 Bohr mag/cell

     iteration # 44     ecut=    70.00 Ry     beta= 0.70
     Davidson diagonalization with overlap
     ethr =  1.01E-06,  avg # of iterations =  1.5

     negative rho (up, down):  1.244E-03 1.926E-01

     total cpu time spent up to now is     4431.3 secs

     total energy              =    -951.82088643 Ry
     Harris-Foulkes estimate   =    -951.82089879 Ry
     estimated scf accuracy    <       0.01477071 Ry

     total magnetization       =     0.05 Bohr mag/cell
     absolute magnetization    =     0.25 Bohr mag/cell

     iteration # 45     ecut=    70.00 Ry     beta= 0.70
     Davidson diagonalization with overlap
     ethr =  1.01E-06,  avg # of iterations =  2.0

     negative rho (up, down):  2.344E-03 1.727E-01

     total cpu time spent up to now is     4525.1 secs

     total energy              =    -951.82153650 Ry
     Harris-Foulkes estimate   =    -951.82115229 Ry
     estimated scf accuracy    <       0.02824719 Ry

     total magnetization       =     0.09 Bohr mag/cell
     absolute magnetization    =     0.32 Bohr mag/cell

     iteration # 46     ecut=    70.00 Ry     beta= 0.70
     Davidson diagonalization with overlap
     ethr =  1.01E-06,  avg # of iterations =  3.5

     negative rho (up, down):  2.894E-03 2.213E-01

     total cpu time spent up to now is     4626.4 secs

     total energy              =    -951.81832480 Ry
     Harris-Foulkes estimate   =    -951.82243097 Ry
     estimated scf accuracy    <       0.11567111 Ry

     total magnetization       =    -0.00 Bohr mag/cell
     absolute magnetization    =     0.52 Bohr mag/cell

     iteration # 47     ecut=    70.00 Ry     beta= 0.70
     Davidson diagonalization with overlap
     ethr =  1.01E-06,  avg # of iterations =  3.5

     negative rho (up, down):  2.205E-03 1.723E-01

     total cpu time spent up to now is     4733.5 secs

     total energy              =    -951.81968982 Ry
     Harris-Foulkes estimate   =    -951.82039057 Ry
     estimated scf accuracy    <       0.02581541 Ry

     total magnetization       =     0.05 Bohr mag/cell
     absolute magnetization    =     0.23 Bohr mag/cell

     iteration # 48     ecut=    70.00 Ry     beta= 0.70
     Davidson diagonalization with overlap
     ethr =  1.01E-06,  avg # of iterations =  3.5

     negative rho (up, down):  1.450E-03 2.195E-01

     total cpu time spent up to now is     4838.2 secs

     total energy              =    -951.82049453 Ry
     Harris-Foulkes estimate   =    -951.82137435 Ry
     estimated scf accuracy    <       0.06258072 Ry

     total magnetization       =     0.04 Bohr mag/cell
     absolute magnetization    =     0.43 Bohr mag/cell

     iteration # 49     ecut=    70.00 Ry     beta= 0.70
     Davidson diagonalization with overlap
     ethr =  1.01E-06,  avg # of iterations =  3.5

     negative rho (up, down):  2.065E-03 1.890E-01

     total cpu time spent up to now is     4935.4 secs

     total energy              =    -951.82012081 Ry
     Harris-Foulkes estimate   =    -951.82090294 Ry
     estimated scf accuracy    <       0.02575022 Ry

     total magnetization       =    -0.00 Bohr mag/cell
     absolute magnetization    =     0.25 Bohr mag/cell

     iteration # 50     ecut=    70.00 Ry     beta= 0.70
     Davidson diagonalization with overlap
     ethr =  1.01E-06,  avg # of iterations =  3.0

     negative rho (up, down):  1.614E-03 1.691E-01

     total cpu time spent up to now is     5037.4 secs

     total energy              =    -951.82040631 Ry
     Harris-Foulkes estimate   =    -951.82071574 Ry
     estimated scf accuracy    <       0.01165810 Ry

     total magnetization       =     0.03 Bohr mag/cell
     absolute magnetization    =     0.20 Bohr mag/cell

     iteration # 51     ecut=    70.00 Ry     beta= 0.70
     Davidson diagonalization with overlap
     ethr =  1.01E-06,  avg # of iterations =  3.0

     negative rho (up, down):  2.642E-03 1.328E-01

     total cpu time spent up to now is     5139.5 secs

     total energy              =    -951.82148669 Ry
     Harris-Foulkes estimate   =    -951.82128961 Ry
     estimated scf accuracy    <       0.03258021 Ry

     total magnetization       =     0.04 Bohr mag/cell
     absolute magnetization    =     0.24 Bohr mag/cell

     iteration # 52     ecut=    70.00 Ry     beta= 0.70
     Davidson diagonalization with overlap
     ethr =  1.01E-06,  avg # of iterations =  4.0

     negative rho (up, down):  2.568E-03 3.004E-01

     total cpu time spent up to now is     5268.3 secs

     total energy              =    -951.82244789 Ry
     Harris-Foulkes estimate   =    -951.82834430 Ry
     estimated scf accuracy    <       0.41846505 Ry

     total magnetization       =     0.01 Bohr mag/cell
     absolute magnetization    =     0.98 Bohr mag/cell

     iteration # 53     ecut=    70.00 Ry     beta= 0.70
     Davidson diagonalization with overlap
     ethr =  1.01E-06,  avg # of iterations =  5.0

     negative rho (up, down):  4.003E-03 2.860E-01

     total cpu time spent up to now is     5385.1 secs

     total energy              =    -951.81730093 Ry
     Harris-Foulkes estimate   =    -951.82400926 Ry
     estimated scf accuracy    <       0.23414714 Ry

     total magnetization       =    -0.00 Bohr mag/cell
     absolute magnetization    =     0.71 Bohr mag/cell

     iteration # 54     ecut=    70.00 Ry     beta= 0.70
     Davidson diagonalization with overlap
     ethr =  1.01E-06,  avg # of iterations =  4.0

     negative rho (up, down):  4.631E-03 2.523E-01

     total cpu time spent up to now is     5512.9 secs

     total energy              =    -951.81810244 Ry
     Harris-Foulkes estimate   =    -951.82065533 Ry
     estimated scf accuracy    <       0.10206165 Ry

     total magnetization       =    -0.00 Bohr mag/cell
     absolute magnetization    =     0.43 Bohr mag/cell

     iteration # 55     ecut=    70.00 Ry     beta= 0.70
     Davidson diagonalization with overlap
     ethr =  1.01E-06,  avg # of iterations =  3.5

     negative rho (up, down):  2.417E-03 2.201E-01

     total cpu time spent up to now is     5621.0 secs

     total energy              =    -951.82115149 Ry
     Harris-Foulkes estimate   =    -951.82011579 Ry
     estimated scf accuracy    <       0.04889615 Ry

     total magnetization       =    -0.00 Bohr mag/cell
     absolute magnetization    =     0.30 Bohr mag/cell

     iteration # 56     ecut=    70.00 Ry     beta= 0.70
     Davidson diagonalization with overlap
     ethr =  1.01E-06,  avg # of iterations =  4.5

     negative rho (up, down):  2.319E-03 2.335E-01

     total cpu time spent up to now is     5724.3 secs

     total energy              =    -951.81837106 Ry
     Harris-Foulkes estimate   =    -951.82177067 Ry
     estimated scf accuracy    <       0.11219862 Ry

     total magnetization       =     0.16 Bohr mag/cell
     absolute magnetization    =     0.65 Bohr mag/cell

     iteration # 57     ecut=    70.00 Ry     beta= 0.70
     Davidson diagonalization with overlap
     ethr =  1.01E-06,  avg # of iterations =  3.5

     negative rho (up, down):  1.959E-03 1.717E-01

     total cpu time spent up to now is     5829.1 secs

     total energy              =    -951.81963497 Ry
     Harris-Foulkes estimate   =    -951.82017964 Ry
     estimated scf accuracy    <       0.01835440 Ry

     total magnetization       =    -0.00 Bohr mag/cell
     absolute magnetization    =     0.15 Bohr mag/cell

     iteration # 58     ecut=    70.00 Ry     beta= 0.70
     Davidson diagonalization with overlap
     ethr =  1.01E-06,  avg # of iterations =  3.5

     negative rho (up, down):  2.448E-03 2.615E-01

     total cpu time spent up to now is     5940.2 secs

     total energy              =    -951.81701531 Ry
     Harris-Foulkes estimate   =    -951.82529402 Ry
     estimated scf accuracy    <       0.31286811 Ry

     total magnetization       =     0.12 Bohr mag/cell
     absolute magnetization    =     0.93 Bohr mag/cell

     iteration # 59     ecut=    70.00 Ry     beta= 0.70
     Davidson diagonalization with overlap
     ethr =  1.01E-06,  avg # of iterations =  5.0

     negative rho (up, down):  4.029E-03 1.846E-01

     total cpu time spent up to now is     6049.3 secs

     total energy              =    -951.81798075 Ry
     Harris-Foulkes estimate   =    -951.81994602 Ry
     estimated scf accuracy    <       0.05542140 Ry

     total magnetization       =     0.00 Bohr mag/cell
     absolute magnetization    =     0.26 Bohr mag/cell

     iteration # 60     ecut=    70.00 Ry     beta= 0.70
     Davidson diagonalization with overlap
     ethr =  1.01E-06,  avg # of iterations =  4.0

     negative rho (up, down):  1.744E-03 1.051E-01

     total cpu time spent up to now is     6165.3 secs

     total energy              =    -951.82010338 Ry
     Harris-Foulkes estimate   =    -951.82004457 Ry
     estimated scf accuracy    <       0.00456562 Ry

     total magnetization       =    -0.00 Bohr mag/cell
     absolute magnetization    =     0.06 Bohr mag/cell

     iteration # 61     ecut=    70.00 Ry     beta= 0.70
     Davidson diagonalization with overlap
     ethr =  1.01E-06,  avg # of iterations =  4.0

     negative rho (up, down):  4.666E-03 9.093E-02

     total cpu time spent up to now is     6280.5 secs

     total energy              =    -951.81748839 Ry
     Harris-Foulkes estimate   =    -951.82245113 Ry
     estimated scf accuracy    <       0.07867970 Ry

     total magnetization       =    -0.11 Bohr mag/cell
     absolute magnetization    =     0.29 Bohr mag/cell

     iteration # 62     ecut=    70.00 Ry     beta= 0.70
     Davidson diagonalization with overlap
     ethr =  1.01E-06,  avg # of iterations =  3.5

     negative rho (up, down):  1.903E-03 2.118E-01

     total cpu time spent up to now is     6390.4 secs

     total energy              =    -951.82240454 Ry
     Harris-Foulkes estimate   =    -951.82187713 Ry
     estimated scf accuracy    <       0.08604591 Ry

     total magnetization       =    -0.01 Bohr mag/cell
     absolute magnetization    =     0.41 Bohr mag/cell

     iteration # 63     ecut=    70.00 Ry     beta= 0.70
     Davidson diagonalization with overlap
     ethr =  1.01E-06,  avg # of iterations =  4.0

     negative rho (up, down):  2.728E-03 2.597E-01

     total cpu time spent up to now is     6485.9 secs

     total energy              =    -951.81875460 Ry
     Harris-Foulkes estimate   =    -951.82276746 Ry
     estimated scf accuracy    <       0.14701553 Ry

     total magnetization       =     0.03 Bohr mag/cell
     absolute magnetization    =     0.58 Bohr mag/cell

     iteration # 64     ecut=    70.00 Ry     beta= 0.70
     Davidson diagonalization with overlap
     ethr =  1.01E-06,  avg # of iterations =  4.0

     negative rho (up, down):  1.979E-03 2.234E-01

     total cpu time spent up to now is     6587.1 secs

     total energy              =    -951.81978011 Ry
     Harris-Foulkes estimate   =    -951.81992997 Ry
     estimated scf accuracy    <       0.02461949 Ry

     total magnetization       =    -0.00 Bohr mag/cell
     absolute magnetization    =     0.22 Bohr mag/cell

     iteration # 65     ecut=    70.00 Ry     beta= 0.70
     Davidson diagonalization with overlap
     ethr =  1.01E-06,  avg # of iterations =  3.0

     negative rho (up, down):  3.712E-03 1.165E-01

     total cpu time spent up to now is     6688.1 secs

     total energy              =    -951.82217045 Ry
     Harris-Foulkes estimate   =    -951.82094396 Ry
     estimated scf accuracy    <       0.04348927 Ry

     total magnetization       =    -0.11 Bohr mag/cell
     absolute magnetization    =     0.31 Bohr mag/cell

     iteration # 66     ecut=    70.00 Ry     beta= 0.70
     Davidson diagonalization with overlap
     ethr =  1.01E-06,  avg # of iterations =  4.5

     negative rho (up, down):  3.859E-03 2.455E-01

     total cpu time spent up to now is     6797.8 secs

     total energy              =    -951.81428538 Ry
     Harris-Foulkes estimate   =    -951.82506426 Ry
     estimated scf accuracy    <       0.29637831 Ry

     total magnetization       =     0.00 Bohr mag/cell
     absolute magnetization    =     0.81 Bohr mag/cell

     iteration # 67     ecut=    70.00 Ry     beta= 0.70
     Davidson diagonalization with overlap
     ethr =  1.01E-06,  avg # of iterations =  5.0

     negative rho (up, down):  1.781E-03 1.742E-01

     total cpu time spent up to now is     6912.2 secs

     total energy              =    -951.81963934 Ry
     Harris-Foulkes estimate   =    -951.81909018 Ry
     estimated scf accuracy    <       0.01269957 Ry

     total magnetization       =    -0.00 Bohr mag/cell
     absolute magnetization    =     0.06 Bohr mag/cell

     iteration # 68     ecut=    70.00 Ry     beta= 0.70
     Davidson diagonalization with overlap
     ethr =  1.01E-06,  avg # of iterations =  4.5

     negative rho (up, down):  1.692E-03 2.215E-01

     total cpu time spent up to now is     7022.7 secs

     total energy              =    -951.81955806 Ry
     Harris-Foulkes estimate   =    -951.82214238 Ry
     estimated scf accuracy    <       0.11110801 Ry

     total magnetization       =    -0.16 Bohr mag/cell
     absolute magnetization    =     0.64 Bohr mag/cell

     iteration # 69     ecut=    70.00 Ry     beta= 0.70
     Davidson diagonalization with overlap
     ethr =  1.01E-06,  avg # of iterations =  4.0

     negative rho (up, down):  2.706E-03 1.528E-01

     total cpu time spent up to now is     7125.7 secs

     total energy              =    -951.81958335 Ry
     Harris-Foulkes estimate   =    -951.82052731 Ry
     estimated scf accuracy    <       0.02613581 Ry

     total magnetization       =     0.00 Bohr mag/cell
     absolute magnetization    =     0.17 Bohr mag/cell

     iteration # 70     ecut=    70.00 Ry     beta= 0.70
     Davidson diagonalization with overlap
     ethr =  1.01E-06,  avg # of iterations =  3.0

     negative rho (up, down):  1.455E-03 9.931E-02

     total cpu time spent up to now is     7229.6 secs

     total energy              =    -951.82065918 Ry
     Harris-Foulkes estimate   =    -951.82040345 Ry
     estimated scf accuracy    <       0.00421476 Ry

     total magnetization       =    -0.17 Bohr mag/cell
     absolute magnetization    =     0.24 Bohr mag/cell

     iteration # 71     ecut=    70.00 Ry     beta= 0.70
     Davidson diagonalization with overlap
     ethr =  1.01E-06,  avg # of iterations =  3.0

     negative rho (up, down):  1.774E-03 8.815E-02

     total cpu time spent up to now is     7326.0 secs

     total energy              =    -951.82050581 Ry
     Harris-Foulkes estimate   =    -951.82107313 Ry
     estimated scf accuracy    <       0.00870536 Ry

     total magnetization       =    -0.13 Bohr mag/cell
     absolute magnetization    =     0.21 Bohr mag/cell

     iteration # 72     ecut=    70.00 Ry     beta= 0.70
     Davidson diagonalization with overlap
     ethr =  1.01E-06,  avg # of iterations =  2.0

     negative rho (up, down):  1.361E-03 1.080E-01

     total cpu time spent up to now is     7420.1 secs

     total energy              =    -951.82117812 Ry
     Harris-Foulkes estimate   =    -951.82111357 Ry
     estimated scf accuracy    <       0.01178707 Ry

     total magnetization       =    -0.14 Bohr mag/cell
     absolute magnetization    =     0.28 Bohr mag/cell

     iteration # 73     ecut=    70.00 Ry     beta= 0.70
     Davidson diagonalization with overlap
     ethr =  1.01E-06,  avg # of iterations =  2.0

     negative rho (up, down):  1.540E-03 1.825E-01

     total cpu time spent up to now is     7507.0 secs

     total energy              =    -951.82078149 Ry
     Harris-Foulkes estimate   =    -951.82131321 Ry
     estimated scf accuracy    <       0.02302230 Ry

     total magnetization       =    -0.11 Bohr mag/cell
     absolute magnetization    =     0.33 Bohr mag/cell

     iteration # 74     ecut=    70.00 Ry     beta= 0.70
     Davidson diagonalization with overlap
     ethr =  1.01E-06,  avg # of iterations =  2.5

     negative rho (up, down):  1.493E-03 1.775E-01

     total cpu time spent up to now is     7595.3 secs

     total energy              =    -951.82045926 Ry
     Harris-Foulkes estimate   =    -951.82084670 Ry
     estimated scf accuracy    <       0.01309391 Ry

     total magnetization       =    -0.06 Bohr mag/cell
     absolute magnetization    =     0.23 Bohr mag/cell

     iteration # 75     ecut=    70.00 Ry     beta= 0.70
     Davidson diagonalization with overlap
     ethr =  1.01E-06,  avg # of iterations =  2.0

     negative rho (up, down):  2.161E-03 1.039E-01

     total cpu time spent up to now is     7686.3 secs

     total energy              =    -951.82090726 Ry
     Harris-Foulkes estimate   =    -951.82084706 Ry
     estimated scf accuracy    <       0.01222006 Ry

     total magnetization       =    -0.06 Bohr mag/cell
     absolute magnetization    =     0.18 Bohr mag/cell

     iteration # 76     ecut=    70.00 Ry     beta= 0.70
     Davidson diagonalization with overlap
     ethr =  1.01E-06,  avg # of iterations =  3.5

     negative rho (up, down):  1.786E-03 1.750E-01

     total cpu time spent up to now is     7784.5 secs

     total energy              =    -951.81996702 Ry
     Harris-Foulkes estimate   =    -951.82133641 Ry
     estimated scf accuracy    <       0.03648547 Ry

     total magnetization       =     0.00 Bohr mag/cell
     absolute magnetization    =     0.31 Bohr mag/cell

     iteration # 77     ecut=    70.00 Ry     beta= 0.70
     Davidson diagonalization with overlap
     ethr =  1.01E-06,  avg # of iterations =  3.0

     negative rho (up, down):  1.312E-03 9.981E-02

     total cpu time spent up to now is     7882.8 secs

     total energy              =    -951.82071267 Ry
     Harris-Foulkes estimate   =    -951.82046708 Ry
     estimated scf accuracy    <       0.00244607 Ry

     total magnetization       =    -0.05 Bohr mag/cell
     absolute magnetization    =     0.10 Bohr mag/cell

     iteration # 78     ecut=    70.00 Ry     beta= 0.70
     Davidson diagonalization with overlap
     ethr =  1.01E-06,  avg # of iterations =  3.0

     negative rho (up, down):  1.611E-03 1.842E-01

     total cpu time spent up to now is     7982.8 secs

     total energy              =    -951.82026836 Ry
     Harris-Foulkes estimate   =    -951.82173557 Ry
     estimated scf accuracy    <       0.05031462 Ry

     total magnetization       =    -0.04 Bohr mag/cell
     absolute magnetization    =     0.38 Bohr mag/cell

     iteration # 79     ecut=    70.00 Ry     beta= 0.70
     Davidson diagonalization with overlap
     ethr =  1.01E-06,  avg # of iterations =  3.0

     negative rho (up, down):  2.172E-03 1.321E-01

     total cpu time spent up to now is     8079.9 secs

     total energy              =    -951.82018587 Ry
     Harris-Foulkes estimate   =    -951.82060799 Ry
     estimated scf accuracy    <       0.01372824 Ry

     total magnetization       =    -0.04 Bohr mag/cell
     absolute magnetization    =     0.18 Bohr mag/cell

     iteration # 80     ecut=    70.00 Ry     beta= 0.70
     Davidson diagonalization with overlap
     ethr =  1.01E-06,  avg # of iterations =  2.0

     negative rho (up, down):  1.354E-03 6.142E-02

     total cpu time spent up to now is     8174.9 secs

     total energy              =    -951.82089154 Ry
     Harris-Foulkes estimate   =    -951.82056660 Ry
     estimated scf accuracy    <       0.00087727 Ry

     total magnetization       =    -0.06 Bohr mag/cell
     absolute magnetization    =     0.10 Bohr mag/cell

     iteration # 81     ecut=    70.00 Ry     beta= 0.70
     Davidson diagonalization with overlap
     ethr =  4.06E-07,  avg # of iterations =  3.0

     negative rho (up, down):  1.842E-03 5.672E-02

     total cpu time spent up to now is     8277.4 secs

     total energy              =    -951.82061261 Ry
     Harris-Foulkes estimate   =    -951.82127165 Ry
     estimated scf accuracy    <       0.00918885 Ry

     total magnetization       =    -0.08 Bohr mag/cell
     absolute magnetization    =     0.15 Bohr mag/cell

     iteration # 82     ecut=    70.00 Ry     beta= 0.70
     Davidson diagonalization with overlap
     ethr =  4.06E-07,  avg # of iterations =  2.5

     negative rho (up, down):  1.325E-03 1.144E-01

     total cpu time spent up to now is     8375.4 secs

     total energy              =    -951.82107341 Ry
     Harris-Foulkes estimate   =    -951.82109020 Ry
     estimated scf accuracy    <       0.00957489 Ry

     total magnetization       =    -0.11 Bohr mag/cell
     absolute magnetization    =     0.25 Bohr mag/cell

     iteration # 83     ecut=    70.00 Ry     beta= 0.70
     Davidson diagonalization with overlap
     ethr =  4.06E-07,  avg # of iterations =  2.5

     negative rho (up, down):  1.384E-03 1.608E-01

     total cpu time spent up to now is     8463.9 secs

     total energy              =    -951.82082873 Ry
     Harris-Foulkes estimate   =    -951.82114315 Ry
     estimated scf accuracy    <       0.01194617 Ry

     total magnetization       =    -0.09 Bohr mag/cell
     absolute magnetization    =     0.26 Bohr mag/cell

     iteration # 84     ecut=    70.00 Ry     beta= 0.70
     Davidson diagonalization with overlap
     ethr =  4.06E-07,  avg # of iterations =  2.0

     negative rho (up, down):  1.336E-03 1.478E-01

     total cpu time spent up to now is     8550.4 secs

     total energy              =    -951.82073666 Ry
     Harris-Foulkes estimate   =    -951.82085438 Ry
     estimated scf accuracy    <       0.00573773 Ry

     total magnetization       =    -0.08 Bohr mag/cell
     absolute magnetization    =     0.21 Bohr mag/cell

     iteration # 85     ecut=    70.00 Ry     beta= 0.70
     Davidson diagonalization with overlap
     ethr =  4.06E-07,  avg # of iterations =  2.0

     negative rho (up, down):  1.651E-03 7.876E-02

     total cpu time spent up to now is     8641.1 secs

     total energy              =    -951.82109620 Ry
     Harris-Foulkes estimate   =    -951.82090568 Ry
     estimated scf accuracy    <       0.00477770 Ry

     total magnetization       =    -0.07 Bohr mag/cell
     absolute magnetization    =     0.16 Bohr mag/cell

     iteration # 86     ecut=    70.00 Ry     beta= 0.70
     Davidson diagonalization with overlap
     ethr =  4.06E-07,  avg # of iterations =  3.0

     negative rho (up, down):  1.570E-03 1.749E-01

     total cpu time spent up to now is     8741.0 secs

     total energy              =    -951.81994619 Ry
     Harris-Foulkes estimate   =    -951.82145054 Ry
     estimated scf accuracy    <       0.03434164 Ry

     total magnetization       =    -0.07 Bohr mag/cell
     absolute magnetization    =     0.36 Bohr mag/cell

     iteration # 87     ecut=    70.00 Ry     beta= 0.70
     Davidson diagonalization with overlap
     ethr =  4.06E-07,  avg # of iterations =  3.0

     negative rho (up, down):  1.274E-03 8.805E-02

     total cpu time spent up to now is     8842.4 secs

     total energy              =    -951.82086022 Ry
     Harris-Foulkes estimate   =    -951.82051374 Ry
     estimated scf accuracy    <       0.00142573 Ry

     total magnetization       =    -0.06 Bohr mag/cell
     absolute magnetization    =     0.10 Bohr mag/cell

     iteration # 88     ecut=    70.00 Ry     beta= 0.70
     Davidson diagonalization with overlap
     ethr =  4.06E-07,  avg # of iterations =  3.0

     negative rho (up, down):  1.373E-03 1.349E-01

     total cpu time spent up to now is     8941.8 secs

     total energy              =    -951.82077850 Ry
     Harris-Foulkes estimate   =    -951.82124453 Ry
     estimated scf accuracy    <       0.01621129 Ry

     total magnetization       =    -0.06 Bohr mag/cell
     absolute magnetization    =     0.26 Bohr mag/cell

     iteration # 89     ecut=    70.00 Ry     beta= 0.70
     Davidson diagonalization with overlap
     ethr =  4.06E-07,  avg # of iterations =  2.5

     negative rho (up, down):  1.592E-03 1.004E-01

     total cpu time spent up to now is     9035.1 secs

     total energy              =    -951.82072335 Ry
     Harris-Foulkes estimate   =    -951.82086897 Ry
     estimated scf accuracy    <       0.00520226 Ry

     total magnetization       =    -0.06 Bohr mag/cell
     absolute magnetization    =     0.16 Bohr mag/cell

     iteration # 90     ecut=    70.00 Ry     beta= 0.70
     Davidson diagonalization with overlap
     ethr =  4.06E-07,  avg # of iterations =  2.0

     negative rho (up, down):  1.274E-03 5.181E-02

     total cpu time spent up to now is     9128.5 secs

     total energy              =    -951.82100248 Ry
     Harris-Foulkes estimate   =    -951.82089418 Ry
     estimated scf accuracy    <       0.00086108 Ry

     total magnetization       =    -0.06 Bohr mag/cell
     absolute magnetization    =     0.11 Bohr mag/cell

     iteration # 91     ecut=    70.00 Ry     beta= 0.70
     Davidson diagonalization with overlap
     ethr =  3.99E-07,  avg # of iterations =  2.5

     negative rho (up, down):  1.330E-03 3.782E-02

     total cpu time spent up to now is     9217.1 secs

     total energy              =    -951.82102512 Ry
     Harris-Foulkes estimate   =    -951.82109837 Ry
     estimated scf accuracy    <       0.00121571 Ry

     total magnetization       =    -0.07 Bohr mag/cell
     absolute magnetization    =     0.11 Bohr mag/cell

     iteration # 92     ecut=    70.00 Ry     beta= 0.70
     Davidson diagonalization with overlap
     ethr =  3.99E-07,  avg # of iterations =  2.0

     negative rho (up, down):  1.284E-03 6.234E-02

     total cpu time spent up to now is     9308.8 secs

     total energy              =    -951.82111411 Ry
     Harris-Foulkes estimate   =    -951.82112872 Ry
     estimated scf accuracy    <       0.00265988 Ry

     total magnetization       =    -0.08 Bohr mag/cell
     absolute magnetization    =     0.17 Bohr mag/cell

     iteration # 93     ecut=    70.00 Ry     beta= 0.70
     Davidson diagonalization with overlap
     ethr =  3.99E-07,  avg # of iterations =  2.0

     negative rho (up, down):  1.326E-03 1.249E-01

     total cpu time spent up to now is     9395.5 secs

     total energy              =    -951.82097799 Ry
     Harris-Foulkes estimate   =    -951.82117016 Ry
     estimated scf accuracy    <       0.00618152 Ry

     total magnetization       =    -0.09 Bohr mag/cell
     absolute magnetization    =     0.22 Bohr mag/cell

     iteration # 94     ecut=    70.00 Ry     beta= 0.70
     Davidson diagonalization with overlap
     ethr =  3.99E-07,  avg # of iterations =  2.5

     negative rho (up, down):  1.308E-03 1.264E-01

     total cpu time spent up to now is     9482.2 secs

     total energy              =    -951.82084498 Ry
     Harris-Foulkes estimate   =    -951.82098493 Ry
     estimated scf accuracy    <       0.00408098 Ry

     total magnetization       =    -0.08 Bohr mag/cell
     absolute magnetization    =     0.19 Bohr mag/cell

     iteration # 95     ecut=    70.00 Ry     beta= 0.70
     Davidson diagonalization with overlap
     ethr =  3.99E-07,  avg # of iterations =  2.0

     negative rho (up, down):  1.615E-03 6.300E-02

     total cpu time spent up to now is     9573.0 secs

     total energy              =    -951.82099502 Ry
     Harris-Foulkes estimate   =    -951.82097939 Ry
     estimated scf accuracy    <       0.00376650 Ry

     total magnetization       =    -0.07 Bohr mag/cell
     absolute magnetization    =     0.14 Bohr mag/cell

     iteration # 96     ecut=    70.00 Ry     beta= 0.70
     Davidson diagonalization with overlap
     ethr =  3.99E-07,  avg # of iterations =  2.5

     negative rho (up, down):  1.406E-03 1.234E-01

     total cpu time spent up to now is     9668.1 secs

     total energy              =    -951.82068112 Ry
     Harris-Foulkes estimate   =    -951.82109790 Ry
     estimated scf accuracy    <       0.01006813 Ry

     total magnetization       =    -0.07 Bohr mag/cell
     absolute magnetization    =     0.23 Bohr mag/cell

     iteration # 97     ecut=    70.00 Ry     beta= 0.70
     Davidson diagonalization with overlap
     ethr =  3.99E-07,  avg # of iterations =  2.0

     negative rho (up, down):  1.248E-03 5.586E-02

     total cpu time spent up to now is     9763.9 secs

     total energy              =    -951.82101449 Ry
     Harris-Foulkes estimate   =    -951.82084398 Ry
     estimated scf accuracy    <       0.00051836 Ry

     total magnetization       =    -0.07 Bohr mag/cell
     absolute magnetization    =     0.10 Bohr mag/cell

     iteration # 98     ecut=    70.00 Ry     beta= 0.70
     Davidson diagonalization with overlap
     ethr =  2.40E-07,  avg # of iterations =  3.0

     negative rho (up, down):  1.355E-03 1.144E-01

     total cpu time spent up to now is     9862.6 secs

     total energy              =    -951.82088238 Ry
     Harris-Foulkes estimate   =    -951.82123504 Ry
     estimated scf accuracy    <       0.01035022 Ry

     total magnetization       =    -0.06 Bohr mag/cell
     absolute magnetization    =     0.23 Bohr mag/cell

     iteration # 99     ecut=    70.00 Ry     beta= 0.70
     Davidson diagonalization with overlap
     ethr =  2.40E-07,  avg # of iterations =  2.0

     negative rho (up, down):  1.507E-03 8.699E-02

     total cpu time spent up to now is     9955.7 secs

     total energy              =    -951.82083548 Ry
     Harris-Foulkes estimate   =    -951.82093510 Ry
     estimated scf accuracy    <       0.00356919 Ry

     total magnetization       =    -0.06 Bohr mag/cell
     absolute magnetization    =     0.15 Bohr mag/cell

     iteration #100     ecut=    70.00 Ry     beta= 0.70
     Davidson diagonalization with overlap
     ethr =  2.40E-07,  avg # of iterations =  2.0

     negative rho (up, down):  1.268E-03 3.582E-02

     Magnetic moment per site:
     atom:    1    charge:    0.2170    magn:   -0.0001    constr:    0.0000
     atom:    2    charge:    0.2168    magn:   -0.0002    constr:    0.0000
     atom:    3    charge:    1.7154    magn:   -0.0008    constr:    0.0000
     atom:    4    charge:    1.7153    magn:    0.0003    constr:    0.0000
     atom:    5    charge:    1.7166    magn:   -0.0010    constr:    0.0000
     atom:    6    charge:    1.7144    magn:    0.0001    constr:    0.0000
     atom:    7    charge:    1.7170    magn:   -0.0012    constr:    0.0000
     atom:    8    charge:    1.7151    magn:    0.0003    constr:    0.0000
     atom:    9    charge:    1.7156    magn:   -0.0008    constr:    0.0000
     atom:   10    charge:    1.7176    magn:    0.0002    constr:    0.0000
     atom:   11    charge:    1.7155    magn:   -0.0002    constr:    0.0000
     atom:   12    charge:    1.7178    magn:    0.0002    constr:    0.0000
     atom:   13    charge:    1.7156    magn:   -0.0001    constr:    0.0000
     atom:   14    charge:    1.7174    magn:   -0.0003    constr:    0.0000
     atom:   15    charge:    1.7117    magn:   -0.0000    constr:    0.0000
     atom:   16    charge:    1.7113    magn:    0.0001    constr:    0.0000
     atom:   17    charge:    1.7209    magn:   -0.0025    constr:    0.0000
     atom:   18    charge:    1.7112    magn:    0.0001    constr:    0.0000
     atom:   19    charge:    1.7118    magn:   -0.0001    constr:    0.0000
     atom:   20    charge:    1.7174    magn:   -0.0002    constr:    0.0000
     atom:   21    charge:    1.7156    magn:   -0.0002    constr:    0.0000
     atom:   22    charge:    1.7175    magn:    0.0001    constr:    0.0000
     atom:   23    charge:    1.7156    magn:   -0.0008    constr:    0.0000
     atom:   24    charge:    1.7151    magn:    0.0003    constr:    0.0000
     atom:   25    charge:    1.7118    magn:   -0.0000    constr:    0.0000
     atom:   26    charge:    1.7112    magn:    0.0000    constr:    0.0000
     atom:   27    charge:    1.8213    magn:   -0.0019    constr:    0.0000
     atom:   28    charge:   13.4093    magn:   -0.0001    constr:    0.0000
     atom:   29    charge:    1.8202    magn:   -0.0021    constr:    0.0000
     atom:   30    charge:    1.7110    magn:    0.0001    constr:    0.0000
     atom:   31    charge:    1.7119    magn:   -0.0001    constr:    0.0000
     atom:   32    charge:    1.7151    magn:    0.0003    constr:    0.0000
     atom:   33    charge:    1.7169    magn:   -0.0011    constr:    0.0000
     atom:   34    charge:    1.7153    magn:    0.0005    constr:    0.0000
     atom:   35    charge:    1.7168    magn:   -0.0010    constr:    0.0000
     atom:   36    charge:    1.7148    magn:    0.0001    constr:    0.0000
     atom:   37    charge:    1.7203    magn:   -0.0023    constr:    0.0000
     atom:   38    charge:    1.7139    magn:    0.0004    constr:    0.0000
     atom:   39    charge:    1.8246    magn:   -0.0028    constr:    0.0000
     atom:   40    charge:    1.7120    magn:    0.0004    constr:    0.0000
     atom:   41    charge:    1.7209    magn:   -0.0028    constr:    0.0000
     atom:   42    charge:    1.7146    magn:    0.0002    constr:    0.0000
     atom:   43    charge:    1.7168    magn:   -0.0012    constr:    0.0000
     atom:   44    charge:    1.7154    magn:    0.0006    constr:    0.0000
     atom:   45    charge:    1.7214    magn:   -0.0047    constr:    0.0000
     atom:   46    charge:    1.7154    magn:    0.0006    constr:    0.0000
     atom:   47    charge:    1.7166    magn:   -0.0010    constr:    0.0000
     atom:   48    charge:    1.7153    magn:    0.0003    constr:    0.0000
     atom:   49    charge:    1.7116    magn:   -0.0001    constr:    0.0000
     atom:   50    charge:    1.7178    magn:    0.0000    constr:    0.0000
     atom:   51    charge:    1.7117    magn:   -0.0001    constr:    0.0000
     atom:   52    charge:    1.7153    magn:    0.0003    constr:    0.0000

     total cpu time spent up to now is    10048.4 secs

     total energy              =    -951.82106238 Ry
     Harris-Foulkes estimate   =    -951.82091673 Ry
     estimated scf accuracy    <       0.00021704 Ry

     total magnetization       =    -0.06 Bohr mag/cell
     absolute magnetization    =     0.10 Bohr mag/cell

     iteration #101     ecut=    70.00 Ry     beta= 0.70
     Davidson diagonalization with overlap
     ethr =  1.00E-07,  avg # of iterations =  2.5

     negative rho (up, down):  1.350E-03 3.448E-02

     total cpu time spent up to now is    10147.4 secs

     total energy              =    -951.82101607 Ry
     Harris-Foulkes estimate   =    -951.82113643 Ry
     estimated scf accuracy    <       0.00154796 Ry

     total magnetization       =    -0.06 Bohr mag/cell
     absolute magnetization    =     0.11 Bohr mag/cell

     iteration #102     ecut=    70.00 Ry     beta= 0.70
     Davidson diagonalization with overlap
     ethr =  1.00E-07,  avg # of iterations =  2.5

     negative rho (up, down):  1.263E-03 5.308E-02

     total cpu time spent up to now is    10242.8 secs

     total energy              =    -951.82108434 Ry
     Harris-Foulkes estimate   =    -951.82110560 Ry
     estimated scf accuracy    <       0.00178633 Ry

     total magnetization       =    -0.08 Bohr mag/cell
     absolute magnetization    =     0.15 Bohr mag/cell

     iteration #103     ecut=    70.00 Ry     beta= 0.70
     Davidson diagonalization with overlap
     ethr =  1.00E-07,  avg # of iterations =  2.0

     negative rho (up, down):  1.263E-03 7.458E-02

     total cpu time spent up to now is    10330.4 secs

     total energy              =    -951.82107749 Ry
     Harris-Foulkes estimate   =    -951.82110730 Ry
     estimated scf accuracy    <       0.00143701 Ry

     total magnetization       =    -0.08 Bohr mag/cell
     absolute magnetization    =     0.15 Bohr mag/cell

     iteration #104     ecut=    70.00 Ry     beta= 0.70
     Davidson diagonalization with overlap
     ethr =  1.00E-07,  avg # of iterations =  1.0

     negative rho (up, down):  1.258E-03 8.364E-02

     total cpu time spent up to now is    10415.7 secs

     total energy              =    -951.82102345 Ry
     Harris-Foulkes estimate   =    -951.82107791 Ry
     estimated scf accuracy    <       0.00152131 Ry

     total magnetization       =    -0.08 Bohr mag/cell
     absolute magnetization    =     0.15 Bohr mag/cell

     iteration #105     ecut=    70.00 Ry     beta= 0.70
     Davidson diagonalization with overlap
     ethr =  1.00E-07,  avg # of iterations =  2.0

     negative rho (up, down):  1.314E-03 4.663E-02

     total cpu time spent up to now is    10504.7 secs

     total energy              =    -951.82108708 Ry
     Harris-Foulkes estimate   =    -951.82105170 Ry
     estimated scf accuracy    <       0.00082175 Ry

     total magnetization       =    -0.07 Bohr mag/cell
     absolute magnetization    =     0.12 Bohr mag/cell

     iteration #106     ecut=    70.00 Ry     beta= 0.70
     Davidson diagonalization with overlap
     ethr =  1.00E-07,  avg # of iterations =  2.0

     negative rho (up, down):  1.278E-03 9.271E-02

     total cpu time spent up to now is    10599.8 secs

     total energy              =    -951.82091832 Ry
     Harris-Foulkes estimate   =    -951.82113916 Ry
     estimated scf accuracy    <       0.00467471 Ry

     total magnetization       =    -0.07 Bohr mag/cell
     absolute magnetization    =     0.19 Bohr mag/cell

     iteration #107     ecut=    70.00 Ry     beta= 0.70
     Davidson diagonalization with overlap
     ethr =  1.00E-07,  avg # of iterations =  2.0

     negative rho (up, down):  1.245E-03 4.224E-02

     total cpu time spent up to now is    10695.1 secs

     total energy              =    -951.82106045 Ry
     Harris-Foulkes estimate   =    -951.82099148 Ry
     estimated scf accuracy    <       0.00036451 Ry

     total magnetization       =    -0.07 Bohr mag/cell
     absolute magnetization    =     0.11 Bohr mag/cell

     iteration #108     ecut=    70.00 Ry     beta= 0.70
     Davidson diagonalization with overlap
     ethr =  1.00E-07,  avg # of iterations =  2.0

     negative rho (up, down):  1.261E-03 6.423E-02

     total cpu time spent up to now is    10790.6 secs

     total energy              =    -951.82105877 Ry
     Harris-Foulkes estimate   =    -951.82112736 Ry
     estimated scf accuracy    <       0.00247394 Ry

     total magnetization       =    -0.06 Bohr mag/cell
     absolute magnetization    =     0.16 Bohr mag/cell

     iteration #109     ecut=    70.00 Ry     beta= 0.70
     Davidson diagonalization with overlap
     ethr =  1.00E-07,  avg # of iterations =  2.0

     negative rho (up, down):  1.304E-03 5.409E-02

     total cpu time spent up to now is    10878.2 secs

     total energy              =    -951.82103239 Ry
     Harris-Foulkes estimate   =    -951.82106795 Ry
     estimated scf accuracy    <       0.00113928 Ry

     total magnetization       =    -0.07 Bohr mag/cell
     absolute magnetization    =     0.13 Bohr mag/cell

     iteration #110     ecut=    70.00 Ry     beta= 0.70
     Davidson diagonalization with overlap
     ethr =  1.00E-07,  avg # of iterations =  2.0

     negative rho (up, down):  1.237E-03 2.966E-02

     total cpu time spent up to now is    10971.4 secs

     total energy              =    -951.82108526 Ry
     Harris-Foulkes estimate   =    -951.82107320 Ry
     estimated scf accuracy    <       0.00031341 Ry

     total magnetization       =    -0.06 Bohr mag/cell
     absolute magnetization    =     0.11 Bohr mag/cell

     iteration #111     ecut=    70.00 Ry     beta= 0.70
     Davidson diagonalization with overlap
     ethr =  1.00E-07,  avg # of iterations =  2.0

     negative rho (up, down):  1.251E-03 3.063E-02

     total cpu time spent up to now is    11059.4 secs

     total energy              =    -951.82108349 Ry
     Harris-Foulkes estimate   =    -951.82111070 Ry
     estimated scf accuracy    <       0.00033504 Ry

     total magnetization       =    -0.06 Bohr mag/cell
     absolute magnetization    =     0.11 Bohr mag/cell

[...]
     ethr =  9.76E-09,  avg # of iterations =  2.0

     negative rho (up, down):  1.239E-03 6.930E-03

     total cpu time spent up to now is    13710.4 secs

     total energy              =    -951.82111473 Ry
     Harris-Foulkes estimate   =    -951.82110981 Ry
     estimated scf accuracy    <       0.00000483 Ry

     total magnetization       =    -0.07 Bohr mag/cell
     absolute magnetization    =     0.10 Bohr mag/cell

     iteration #141     ecut=    70.00 Ry     beta= 0.70
     Davidson diagonalization with overlap
     ethr =  2.24E-09,  avg # of iterations =  3.0

     negative rho (up, down):  1.239E-03 4.743E-03

     total cpu time spent up to now is    13806.6 secs

     total energy              =    -951.82111446 Ry
     Harris-Foulkes estimate   =    -951.82111609 Ry
     estimated scf accuracy    <       0.00001653 Ry

     total magnetization       =    -0.07 Bohr mag/cell
     absolute magnetization    =     0.10 Bohr mag/cell

     iteration #142     ecut=    70.00 Ry     beta= 0.70
     Davidson diagonalization with overlap
     ethr =  2.24E-09,  avg # of iterations =  2.5

     negative rho (up, down):  1.239E-03 7.195E-03

     total cpu time spent up to now is    13901.7 secs

     total energy              =    -951.82111499 Ry
     Harris-Foulkes estimate   =    -951.82111609 Ry
     estimated scf accuracy    <       0.00003380 Ry

     total magnetization       =    -0.07 Bohr mag/cell
     absolute magnetization    =     0.10 Bohr mag/cell

     iteration #143     ecut=    70.00 Ry     beta= 0.70
     Davidson diagonalization with overlap
     ethr =  2.24E-09,  avg # of iterations =  2.0

     negative rho (up, down):  1.238E-03 5.657E-03

     total cpu time spent up to now is    13993.0 secs

     total energy              =    -951.82111587 Ry
     Harris-Foulkes estimate   =    -951.82111568 Ry
     estimated scf accuracy    <       0.00000677 Ry

     total magnetization       =    -0.07 Bohr mag/cell
     absolute magnetization    =     0.10 Bohr mag/cell

     iteration #144     ecut=    70.00 Ry     beta= 0.70
     Davidson diagonalization with overlap
     ethr =  2.24E-09,  avg # of iterations =  2.0

     negative rho (up, down):  1.239E-03 1.256E-02

     total cpu time spent up to now is    14082.6 secs

     total energy              =    -951.82111415 Ry
     Harris-Foulkes estimate   =    -951.82111628 Ry
     estimated scf accuracy    <       0.00003990 Ry

     total magnetization       =    -0.07 Bohr mag/cell
     absolute magnetization    =     0.10 Bohr mag/cell

     iteration #145     ecut=    70.00 Ry     beta= 0.70
     Davidson diagonalization with overlap
     ethr =  2.24E-09,  avg # of iterations =  2.0

     negative rho (up, down):  1.239E-03 6.634E-03

     total cpu time spent up to now is    14171.5 secs

     total energy              =    -951.82111540 Ry
     Harris-Foulkes estimate   =    -951.82111453 Ry
     estimated scf accuracy    <       0.00000742 Ry

     total magnetization       =    -0.07 Bohr mag/cell
     absolute magnetization    =     0.10 Bohr mag/cell

     iteration #146     ecut=    70.00 Ry     beta= 0.70
     Davidson diagonalization with overlap
     ethr =  2.24E-09,  avg # of iterations =  2.0

     negative rho (up, down):  1.238E-03 9.161E-03

     total cpu time spent up to now is    14262.9 secs

     total energy              =    -951.82111471 Ry
     Harris-Foulkes estimate   =    -951.82111590 Ry
     estimated scf accuracy    <       0.00003567 Ry

     total magnetization       =    -0.07 Bohr mag/cell
     absolute magnetization    =     0.10 Bohr mag/cell

     iteration #147     ecut=    70.00 Ry     beta= 0.70
     Davidson diagonalization with overlap
     ethr =  2.24E-09,  avg # of iterations =  2.0

     negative rho (up, down):  1.238E-03 5.193E-03

     total cpu time spent up to now is    14353.9 secs

     total energy              =    -951.82111532 Ry
     Harris-Foulkes estimate   =    -951.82111506 Ry
     estimated scf accuracy    <       0.00000516 Ry

     total magnetization       =    -0.07 Bohr mag/cell
     absolute magnetization    =     0.10 Bohr mag/cell

     iteration #148     ecut=    70.00 Ry     beta= 0.70
     Davidson diagonalization with overlap
     ethr =  2.24E-09,  avg # of iterations =  2.0

     negative rho (up, down):  1.238E-03 6.238E-03

     total cpu time spent up to now is    14445.5 secs

     total energy              =    -951.82111564 Ry
     Harris-Foulkes estimate   =    -951.82111598 Ry
     estimated scf accuracy    <       0.00002154 Ry

     total magnetization       =    -0.07 Bohr mag/cell
     absolute magnetization    =     0.10 Bohr mag/cell

     iteration #149     ecut=    70.00 Ry     beta= 0.70
     Davidson diagonalization with overlap
     ethr =  2.24E-09,  avg # of iterations =  1.0

     negative rho (up, down):  1.239E-03 7.298E-03

     total cpu time spent up to now is    14530.6 secs

     total energy              =    -951.82111505 Ry
     Harris-Foulkes estimate   =    -951.82111565 Ry
     estimated scf accuracy    <       0.00001870 Ry

     total magnetization       =    -0.07 Bohr mag/cell
     absolute magnetization    =     0.10 Bohr mag/cell

     iteration #150     ecut=    70.00 Ry     beta= 0.70
     Davidson diagonalization with overlap
     ethr =  2.24E-09,  avg # of iterations =  2.0

     negative rho (up, down):  1.238E-03 5.205E-03

     total cpu time spent up to now is    14622.2 secs

     total energy              =    -951.82111494 Ry
     Harris-Foulkes estimate   =    -951.82111564 Ry
     estimated scf accuracy    <       0.00001262 Ry

     total magnetization       =    -0.07 Bohr mag/cell
     absolute magnetization    =     0.10 Bohr mag/cell

     iteration #151     ecut=    70.00 Ry     beta= 0.70
     Davidson diagonalization with overlap
     ethr =  2.24E-09,  avg # of iterations =  2.0

     negative rho (up, down):  1.238E-03 2.384E-03

     total cpu time spent up to now is    14711.1 secs

     total energy              =    -951.82111572 Ry
     Harris-Foulkes estimate   =    -951.82111558 Ry
     estimated scf accuracy    <       0.00000154 Ry

     total magnetization       =    -0.07 Bohr mag/cell
     absolute magnetization    =     0.10 Bohr mag/cell

     iteration #152     ecut=    70.00 Ry     beta= 0.70
     Davidson diagonalization with overlap
     ethr =  7.15E-10,  avg # of iterations =  2.0

     negative rho (up, down):  1.238E-03 3.847E-03

     total cpu time spent up to now is    14804.3 secs

     total energy              =    -951.82111563 Ry
     Harris-Foulkes estimate   =    -951.82111602 Ry
     estimated scf accuracy    <       0.00000913 Ry

     total magnetization       =    -0.07 Bohr mag/cell
     absolute magnetization    =     0.10 Bohr mag/cell

     iteration #153     ecut=    70.00 Ry     beta= 0.70
     Davidson diagonalization with overlap
     ethr =  7.15E-10,  avg # of iterations =  2.0

     negative rho (up, down):  1.237E-03 2.417E-04

     Magnetic moment per site:
     atom:    1    charge:    0.2170    magn:   -0.0001    constr:    0.0000
     atom:    2    charge:    0.2168    magn:   -0.0002    constr:    0.0000
     atom:    3    charge:    1.7154    magn:   -0.0008    constr:    0.0000
     atom:    4    charge:    1.7153    magn:    0.0003    constr:    0.0000
     atom:    5    charge:    1.7167    magn:   -0.0010    constr:    0.0000
     atom:    6    charge:    1.7145    magn:    0.0002    constr:    0.0000
     atom:    7    charge:    1.7170    magn:   -0.0012    constr:    0.0000
     atom:    8    charge:    1.7152    magn:    0.0004    constr:    0.0000
     atom:    9    charge:    1.7156    magn:   -0.0009    constr:    0.0000
     atom:   10    charge:    1.7176    magn:    0.0002    constr:    0.0000
     atom:   11    charge:    1.7155    magn:   -0.0003    constr:    0.0000
     atom:   12    charge:    1.7177    magn:    0.0002    constr:    0.0000
     atom:   13    charge:    1.7156    magn:   -0.0002    constr:    0.0000
     atom:   14    charge:    1.7174    magn:   -0.0002    constr:    0.0000
     atom:   15    charge:    1.7118    magn:   -0.0001    constr:    0.0000
     atom:   16    charge:    1.7114    magn:    0.0001    constr:    0.0000
     atom:   17    charge:    1.7210    magn:   -0.0025    constr:    0.0000
     atom:   18    charge:    1.7114    magn:    0.0002    constr:    0.0000
     atom:   19    charge:    1.7119    magn:   -0.0001    constr:    0.0000
     atom:   20    charge:    1.7175    magn:   -0.0001    constr:    0.0000
     atom:   21    charge:    1.7157    magn:   -0.0003    constr:    0.0000
     atom:   22    charge:    1.7175    magn:    0.0001    constr:    0.0000
     atom:   23    charge:    1.7156    magn:   -0.0009    constr:    0.0000
     atom:   24    charge:    1.7151    magn:    0.0004    constr:    0.0000
     atom:   25    charge:    1.7118    magn:   -0.0001    constr:    0.0000
     atom:   26    charge:    1.7111    magn:    0.0001    constr:    0.0000
     atom:   27    charge:    1.8213    magn:   -0.0019    constr:    0.0000
     atom:   28    charge:   13.4099    magn:   -0.0000    constr:    0.0000
     atom:   29    charge:    1.8204    magn:   -0.0021    constr:    0.0000
     atom:   30    charge:    1.7111    magn:    0.0001    constr:    0.0000
     atom:   31    charge:    1.7119    magn:   -0.0001    constr:    0.0000
     atom:   32    charge:    1.7152    magn:    0.0004    constr:    0.0000
     atom:   33    charge:    1.7169    magn:   -0.0011    constr:    0.0000
     atom:   34    charge:    1.7153    magn:    0.0006    constr:    0.0000
     atom:   35    charge:    1.7168    magn:   -0.0010    constr:    0.0000
     atom:   36    charge:    1.7147    magn:    0.0001    constr:    0.0000
     atom:   37    charge:    1.7201    magn:   -0.0023    constr:    0.0000
     atom:   38    charge:    1.7137    magn:    0.0004    constr:    0.0000
     atom:   39    charge:    1.8242    magn:   -0.0028    constr:    0.0000
     atom:   40    charge:    1.7118    magn:    0.0004    constr:    0.0000
     atom:   41    charge:    1.7208    magn:   -0.0028    constr:    0.0000
     atom:   42    charge:    1.7146    magn:    0.0002    constr:    0.0000
     atom:   43    charge:    1.7168    magn:   -0.0013    constr:    0.0000
     atom:   44    charge:    1.7154    magn:    0.0006    constr:    0.0000
     atom:   45    charge:    1.7214    magn:   -0.0047    constr:    0.0000
     atom:   46    charge:    1.7154    magn:    0.0006    constr:    0.0000
     atom:   47    charge:    1.7166    magn:   -0.0011    constr:    0.0000
     atom:   48    charge:    1.7153    magn:    0.0003    constr:    0.0000
     atom:   49    charge:    1.7115    magn:   -0.0001    constr:    0.0000
     atom:   50    charge:    1.7177    magn:    0.0001    constr:    0.0000
     atom:   51    charge:    1.7116    magn:   -0.0002    constr:    0.0000
     atom:   52    charge:    1.7152    magn:    0.0004    constr:    0.0000

     total cpu time spent up to now is    14895.0 secs

     End of self-consistent calculation

 ------ SPIN UP ------------


          k = 0.0000 0.0000 0.0000 ( 87777 PWs)   bands (ev):

  -107.8800 -69.0759 -69.0197 -66.9778 -19.8220 -19.0045 -18.9996 -18.8851
   -18.8796 -18.7970 -18.7337 -17.1607 -17.1518 -17.1222 -17.0805 -17.0694
   -16.7488 -16.3076 -16.3034 -16.1625 -16.1593 -16.1446 -15.6707 -14.3107
   -14.2976 -14.1426 -14.0126 -14.0071 -13.5076 -13.1242 -13.1221 -13.0707
   -12.9008 -12.8927 -12.4994 -12.0679 -12.0648 -11.7053 -11.5667 -11.5620
   -10.9351 -10.4195 -10.4173  -9.5695  -9.3608  -9.3570  -9.2200  -9.2053
    -9.2046  -9.1898  -8.9590  -8.9440  -8.6117  -8.5831  -8.5221  -8.4440
    -7.9096  -7.8940  -7.8510  -7.6579  -7.5419  -7.5323  -7.4415  -7.4386
    -7.3443  -6.8372  -6.8170  -6.8146  -6.7397  -6.6163  -6.6088  -6.5488
    -6.5448  -6.5433  -6.5127  -6.4487  -6.4193  -6.4052  -6.2814  -6.2760
    -6.0601  -5.5400  -5.5360  -5.0238  -4.9431  -4.8362  -4.8326  -4.7542
    -4.7163  -4.7090  -4.3989  -4.3908  -4.3693  -3.8397  -3.8318  -3.7559
    -3.7526  -3.7522  -3.5017  -3.4123  -3.4054  -2.9196  -1.8886  -1.8025
    -1.7977  -1.5937  -1.5800  -1.0656   0.1022   0.1311   0.9048   0.9605
     0.9695   1.2080   1.2207   1.5697   2.4919   2.7906   2.8097   2.8619
     3.0226   3.0376   3.3780   3.5864   3.6390   3.7389   3.7423   3.7673
     3.9387   4.2086

     occupation numbers 
     1.0000   1.0000   1.0000   1.0000   1.0000   1.0000   1.0000   1.0000
     1.0000   1.0000   1.0000   1.0000   1.0000   1.0000   1.0000   1.0000
     1.0000   1.0000   1.0000   1.0000   1.0000   1.0000   1.0000   1.0000
     1.0000   1.0000   1.0000   1.0000   1.0000   1.0000   1.0000   1.0000
     1.0000   1.0000   1.0000   1.0000   1.0000   1.0000   1.0000   1.0000
     1.0000   1.0000   1.0000   1.0000   1.0000   1.0000   1.0000   1.0000
     1.0000   1.0000   1.0000   1.0000   1.0000   1.0000   1.0000   1.0000
     1.0000   1.0000   1.0000   1.0000   1.0000   1.0000   1.0000   1.0000
     1.0000   1.0000   1.0000   1.0000   1.0000   1.0000   1.0000   1.0000
     1.0000   1.0000   1.0000   1.0000   1.0000   1.0000   1.0000   1.0000
     1.0000   1.0000   1.0000   1.0000   1.0000   1.0000   1.0000   1.0000
     1.0000   1.0000   1.0000   1.0000   1.0000   1.0000   1.0000   1.0000
     1.0000   1.0000   1.0000   1.0000   1.0000   1.0000   1.0000   1.0000
     1.0000   1.0000   1.0000   0.9666   0.0000   0.0000   0.0000   0.0000
     0.0000   0.0000   0.0000   0.0000   0.0000   0.0000   0.0000   0.0000
     0.0000   0.0000   0.0000   0.0000   0.0000   0.0000   0.0000   0.0000
     0.0000   0.0000

 ------ SPIN DOWN ----------


          k = 0.0000 0.0000 0.0000 ( 87777 PWs)   bands (ev):

  -107.8800 -69.0756 -69.0195 -66.9788 -19.8235 -19.0058 -19.0009 -18.8861
   -18.8809 -18.7986 -18.7365 -17.1625 -17.1534 -17.1225 -17.0821 -17.0712
   -16.7510 -16.3086 -16.3043 -16.1638 -16.1605 -16.1474 -15.6727 -14.3124
   -14.2991 -14.1435 -14.0133 -14.0079 -13.5140 -13.1248 -13.1227 -13.0718
   -12.9019 -12.8937 -12.5002 -12.0692 -12.0662 -11.7074 -11.5676 -11.5629
   -10.9369 -10.4206 -10.4183  -9.5697  -9.3620  -9.3583  -9.2204  -9.2061
    -9.2055  -9.1912  -8.9600  -8.9448  -8.6136  -8.5837  -8.5260  -8.4450
    -7.9138  -7.8947  -7.8565  -7.6589  -7.5427  -7.5330  -7.4423  -7.4392
    -7.3483  -6.8375  -6.8195  -6.8171  -6.7441  -6.6170  -6.6095  -6.5491
    -6.5453  -6.5438  -6.5140  -6.4516  -6.4223  -6.4074  -6.2825  -6.2771
    -6.0639  -5.5407  -5.5367  -5.0243  -4.9435  -4.8367  -4.8330  -4.7548
    -4.7208  -4.7136  -4.4015  -4.3935  -4.3742  -3.8418  -3.8344  -3.7635
    -3.7533  -3.7529  -3.5056  -3.4153  -3.4091  -2.9252  -1.8914  -1.8042
    -1.7995  -1.5967  -1.5827  -1.0826   0.0994   0.1284   0.9016   0.9579
     0.9667   1.2039   1.2172   1.5639   2.4914   2.7878   2.8065   2.8541
     3.0186   3.0341   3.3739   3.5838   3.6384   3.7386   3.7419   3.7667
     3.9372   4.2080

     occupation numbers 
     1.0000   1.0000   1.0000   1.0000   1.0000   1.0000   1.0000   1.0000
     1.0000   1.0000   1.0000   1.0000   1.0000   1.0000   1.0000   1.0000
     1.0000   1.0000   1.0000   1.0000   1.0000   1.0000   1.0000   1.0000
     1.0000   1.0000   1.0000   1.0000   1.0000   1.0000   1.0000   1.0000
     1.0000   1.0000   1.0000   1.0000   1.0000   1.0000   1.0000   1.0000
     1.0000   1.0000   1.0000   1.0000   1.0000   1.0000   1.0000   1.0000
     1.0000   1.0000   1.0000   1.0000   1.0000   1.0000   1.0000   1.0000
     1.0000   1.0000   1.0000   1.0000   1.0000   1.0000   1.0000   1.0000
     1.0000   1.0000   1.0000   1.0000   1.0000   1.0000   1.0000   1.0000
     1.0000   1.0000   1.0000   1.0000   1.0000   1.0000   1.0000   1.0000
     1.0000   1.0000   1.0000   1.0000   1.0000   1.0000   1.0000   1.0000
     1.0000   1.0000   1.0000   1.0000   1.0000   1.0000   1.0000   1.0000
     1.0000   1.0000   1.0000   1.0000   1.0000   1.0000   1.0000   1.0000
     1.0000   1.0000   1.0000   1.0334   0.0000   0.0000   0.0000   0.0000
     0.0000   0.0000   0.0000   0.0000   0.0000   0.0000   0.0000   0.0000
     0.0000   0.0000   0.0000   0.0000   0.0000   0.0000   0.0000   0.0000
     0.0000   0.0000

     the Fermi energy is    -1.0542 ev

!    total energy              =    -951.82111583 Ry
     Harris-Foulkes estimate   =    -951.82111582 Ry
     estimated scf accuracy    <       0.00000093 Ry

     The total energy is the sum of the following terms:

     one-electron contribution =   -3007.76295275 Ry
     hartree contribution      =    1546.62811861 Ry
     xc contribution           =    -265.82759439 Ry
     ewald contribution        =     775.14117965 Ry
     smearing contrib. (-TS)   =       0.00013305 Ry

     total magnetization       =    -0.07 Bohr mag/cell
     absolute magnetization    =     0.10 Bohr mag/cell

     convergence has been achieved in 153 iterations

     Writing output data file cobre-baricentro-distance-2.0.save/

     init_run     :     66.99s CPU     68.43s WALL (       1 calls)
     electrons    :  14554.76s CPU  14825.52s WALL (       1 calls)

     Called by init_run:
     wfcinit      :     37.78s CPU     38.02s WALL (       1 calls)
     wfcinit:atom :      0.05s CPU      0.08s WALL (       2 calls)
     wfcinit:wfcr :     37.39s CPU     37.54s WALL (       2 calls)
     potinit      :     12.19s CPU     12.56s WALL (       1 calls)
     hinit0       :      9.13s CPU      9.15s WALL (       1 calls)

     Called by electrons:
     c_bands      :   9290.07s CPU   9342.06s WALL (     153 calls)
     sum_band     :   3026.84s CPU   3117.93s WALL (     153 calls)
     v_of_rho     :   1056.55s CPU   1105.41s WALL (     154 calls)
     v_h          :     10.52s CPU     10.80s WALL (     154 calls)
     v_xc         :   1046.02s CPU   1094.61s WALL (     154 calls)
     newd         :   1095.33s CPU   1173.44s WALL (     154 calls)
     mix_rho      :     67.10s CPU     68.09s WALL (     153 calls)

     Called by c_bands:
     init_us_2    :     25.96s CPU     26.03s WALL (     614 calls)
     cegterg      :   9221.08s CPU   9272.67s WALL (     306 calls)

     Called by sum_band:
     sum_band:bec :      0.25s CPU      0.25s WALL (     306 calls)
     addusdens    :   1931.24s CPU   2015.69s WALL (     153 calls)

     Called by *egterg:
     h_psi        :   4609.58s CPU   4644.04s WALL (    1120 calls)
     s_psi        :   1520.89s CPU   1521.97s WALL (    1120 calls)
     g_psi        :      5.80s CPU      5.83s WALL (     812 calls)
     cdiaghg      :     78.13s CPU     78.17s WALL (    1118 calls)
     cegterg:over :   1268.15s CPU   1268.86s WALL (     812 calls)
     cegterg:upda :    768.87s CPU    773.43s WALL (     812 calls)
     cegterg:last :    525.70s CPU    525.90s WALL (     306 calls)

     Called by h_psi:
     h_psi:pot    :   4603.57s CPU   4631.89s WALL (    1120 calls)
     h_psi:calbec :   1519.06s CPU   1520.11s WALL (    1120 calls)
     vloc_psi     :   1566.04s CPU   1592.60s WALL (    1120 calls)
     add_vuspsi   :   1518.46s CPU   1519.17s WALL (    1120 calls)

     General routines
     calbec       :   2169.40s CPU   2170.97s WALL (    1426 calls)
     fft          :    596.09s CPU    614.23s WALL (   11544 calls)
     ffts         :     10.46s CPU     10.81s WALL (     614 calls)
     fftw         :   1689.81s CPU   1718.79s WALL (  226086 calls)
     interpolate  :     23.93s CPU     24.59s WALL (     308 calls)

     Parallel routines
     fft_scatt_xy :    414.22s CPU    419.76s WALL (  238244 calls)
     fft_scatt_yz :    774.06s CPU    807.67s WALL (  238244 calls)

     PWSCF        :      4h 3m CPU      4h 8m WALL


   This run was terminated on:  20:33:38   6Jan2023            

=------------------------------------------------------------------------------=
   JOB DONE.
=------------------------------------------------------------------------------=
