
     Program PWSCF v.6.4.1 starts on  9Mar2022 at 22:57: 7 

     This program is part of the open-source Quantum ESPRESSO suite
     for quantum simulation of materials; please cite
         "P. Giannozzi et al., J. Phys.:Condens. Matter 21 395502 (2009);
         "P. Giannozzi et al., J. Phys.:Condens. Matter 29 465901 (2017);
          URL http://www.quantum-espresso.org", 
     in publications or presentations arising from this work. More details at
     http://www.quantum-espresso.org/quote

     Parallel version (MPI), running on     6 processors

     MPI processes distributed on     1 nodes
     R & G space division:  proc/nbgrp/npool/nimage =       6
     Reading input from cr-240.in

     Current dimensions of program PWSCF are:
     Max number of different atomic species (ntypx) = 10
     Max number of k-points (npk) =  40000
     Max angular momentum in pseudopotentials (lmaxx) =  3
               file Cr.pbe-spn-rrkjus_psl.1.0.0.UPF: wavefunction(s)  3P renormalized
               file Cr.pbe-spn-rrkjus_psl.1.0.0.UPF: wavefunction(s)  3P renormalized

     Subspace diagonalization in iterative solution of the eigenvalue problem:
     a serial algorithm will be used

     Message from routine setup:
     DEPRECATED: symmetry with ibrav=0, use correct ibrav instead

     Parallelization info
     --------------------
     sticks:   dense  smooth     PW     G-vecs:    dense   smooth      PW
     Min          96      96     38                 1732     1732     433
     Max          97      97     40                 1735     1735     434
     Sum         577     577    233                10395    10395    2601



     bravais-lattice index     =            0
     lattice parameter (alat)  =       5.4991  a.u.
     unit-cell volume          =     166.2936 (a.u.)^3
     number of atoms/cell      =            2
     number of atomic types    =            2
     number of electrons       =        28.00
     number of Kohn-Sham states=           18
     kinetic-energy cutoff     =      80.0000  Ry
     charge density cutoff     =     240.0000  Ry
     convergence threshold     =      1.0E-06
     mixing beta               =       0.7000
     number of iterations used =            8  plain     mixing
     Exchange-correlation      = PBE ( 1  4  3  4 0 0)

     celldm(1)=   5.499103  celldm(2)=   0.000000  celldm(3)=   0.000000
     celldm(4)=   0.000000  celldm(5)=   0.000000  celldm(6)=   0.000000

     crystal axes: (cart. coord. in units of alat)
               a(1) = (   1.000000   0.000000   0.000000 )  
               a(2) = (   0.000000   1.000000   0.000000 )  
               a(3) = (   0.000000   0.000000   1.000000 )  

     reciprocal axes: (cart. coord. in units 2 pi/alat)
               b(1) = (  1.000000  0.000000  0.000000 )  
               b(2) = (  0.000000  1.000000  0.000000 )  
               b(3) = (  0.000000  0.000000  1.000000 )  


     PseudoPot. # 1 for Cr read from file:
     /home/cristian/Escritorio/Proyecto_Grafeno/pseudopotenciales/Cr.pbe-spn-rrkjus_psl.1.0.0.UPF
     MD5 check sum: 793d051e4f89dd1e3290b85340a92c0a
     Pseudo is Ultrasoft + core correction, Zval = 14.0
     Generated using "atomic" code by A. Dal Corso v.6.2.2
     Using radial grid of 1183 points,  6 beta functions with: 
                l(1) =   0
                l(2) =   0
                l(3) =   1
                l(4) =   1
                l(5) =   2
                l(6) =   2
     Q(r) pseudized with 0 coefficients 


     PseudoPot. # 2 for Cr read from file:
     /home/cristian/Escritorio/Proyecto_Grafeno/pseudopotenciales/Cr.pbe-spn-rrkjus_psl.1.0.0.UPF
     MD5 check sum: 793d051e4f89dd1e3290b85340a92c0a
     Pseudo is Ultrasoft + core correction, Zval = 14.0
     Generated using "atomic" code by A. Dal Corso v.6.2.2
     Using radial grid of 1183 points,  6 beta functions with: 
                l(1) =   0
                l(2) =   0
                l(3) =   1
                l(4) =   1
                l(5) =   2
                l(6) =   2
     Q(r) pseudized with 0 coefficients 


     atomic species   valence    mass     pseudopotential
        Cr1           14.00    51.99610     Cr( 1.00)
        Cr2           14.00    51.99610     Cr( 1.00)

     Starting magnetic structure 
     atomic species   magnetization
        Cr1          0.100
        Cr2         -0.100

     48 Sym. Ops., with inversion, found



   Cartesian axes

     site n.     atom                  positions (alat units)
         1           Cr1 tau(   1) = (   0.0000000   0.0000000   0.0000000  )
         2           Cr2 tau(   2) = (   0.5000000   0.5000000   0.5000000  )

     number of k points=    20  Methfessel-Paxton smearing, width (Ry)=  0.0200
                       cart. coord. in units 2pi/alat
        k(    1) = (   0.0625000   0.0625000   0.0625000), wk =   0.0156250
        k(    2) = (   0.0625000   0.0625000   0.1875000), wk =   0.0468750
        k(    3) = (   0.0625000   0.0625000   0.3125000), wk =   0.0468750
        k(    4) = (   0.0625000   0.0625000   0.4375000), wk =   0.0468750
        k(    5) = (   0.0625000   0.1875000   0.1875000), wk =   0.0468750
        k(    6) = (   0.0625000   0.1875000   0.3125000), wk =   0.0937500
        k(    7) = (   0.0625000   0.1875000   0.4375000), wk =   0.0937500
        k(    8) = (   0.0625000   0.3125000   0.3125000), wk =   0.0468750
        k(    9) = (   0.0625000   0.3125000   0.4375000), wk =   0.0937500
        k(   10) = (   0.0625000   0.4375000   0.4375000), wk =   0.0468750
        k(   11) = (   0.1875000   0.1875000   0.1875000), wk =   0.0156250
        k(   12) = (   0.1875000   0.1875000   0.3125000), wk =   0.0468750
        k(   13) = (   0.1875000   0.1875000   0.4375000), wk =   0.0468750
        k(   14) = (   0.1875000   0.3125000   0.3125000), wk =   0.0468750
        k(   15) = (   0.1875000   0.3125000   0.4375000), wk =   0.0937500
        k(   16) = (   0.1875000   0.4375000   0.4375000), wk =   0.0468750
        k(   17) = (   0.3125000   0.3125000   0.3125000), wk =   0.0156250
        k(   18) = (   0.3125000   0.3125000   0.4375000), wk =   0.0468750
        k(   19) = (   0.3125000   0.4375000   0.4375000), wk =   0.0468750
        k(   20) = (   0.4375000   0.4375000   0.4375000), wk =   0.0156250

     Dense  grid:    10395 G-vectors     FFT dimensions: (  27,  27,  27)

     Estimated max dynamical RAM per process >      12.79 MB

     Estimated total dynamical RAM >      76.75 MB
     Generating pointlists ...
     new r_m :   0.3572 (alat units)  1.9645 (a.u.) for type    1
     new r_m :   0.3572 (alat units)  1.9645 (a.u.) for type    2

     Check: negative core charge=   -0.000027

     Initial potential from superposition of free atoms

     starting charge   27.99845, renormalised to   28.00000
     Starting wfcs are   20 randomized atomic wfcs

     total cpu time spent up to now is        1.8 secs

     Self-consistent Calculation

     iteration #  1     ecut=    80.00 Ry     beta= 0.70
     Davidson diagonalization with overlap
     ethr =  1.00E-02,  avg # of iterations =  2.5

     Threshold (ethr) on eigenvalues was too large:
     Diagonalizing with lowered threshold

     Davidson diagonalization with overlap
     ethr =  6.38E-04,  avg # of iterations =  2.3

     total cpu time spent up to now is        3.2 secs

     total energy              =    -349.90188335 Ry
     Harris-Foulkes estimate   =    -350.02732172 Ry
     estimated scf accuracy    <       0.19157868 Ry

     total magnetization       =     0.00 Bohr mag/cell
     absolute magnetization    =     2.15 Bohr mag/cell

     iteration #  2     ecut=    80.00 Ry     beta= 0.70
     Davidson diagonalization with overlap
     ethr =  6.84E-04,  avg # of iterations =  3.1

     total cpu time spent up to now is        4.2 secs

     total energy              =    -349.93518953 Ry
     Harris-Foulkes estimate   =    -350.05765105 Ry
     estimated scf accuracy    <       0.26689440 Ry

     total magnetization       =     0.00 Bohr mag/cell
     absolute magnetization    =     2.73 Bohr mag/cell

     iteration #  3     ecut=    80.00 Ry     beta= 0.70
     Davidson diagonalization with overlap
     ethr =  6.84E-04,  avg # of iterations =  3.0

     total cpu time spent up to now is        5.0 secs

     total energy              =    -349.98805245 Ry
     Harris-Foulkes estimate   =    -349.98840335 Ry
     estimated scf accuracy    <       0.00206164 Ry

     total magnetization       =     0.00 Bohr mag/cell
     absolute magnetization    =     2.50 Bohr mag/cell

     iteration #  4     ecut=    80.00 Ry     beta= 0.70
     Davidson diagonalization with overlap
     ethr =  7.36E-06,  avg # of iterations =  4.0

     total cpu time spent up to now is        6.2 secs

     total energy              =    -349.98095877 Ry
     Harris-Foulkes estimate   =    -349.99797762 Ry
     estimated scf accuracy    <       0.18032765 Ry

     total magnetization       =    -0.02 Bohr mag/cell
     absolute magnetization    =     2.54 Bohr mag/cell

     iteration #  5     ecut=    80.00 Ry     beta= 0.70
     Davidson diagonalization with overlap
     ethr =  7.36E-06,  avg # of iterations =  4.2

     total cpu time spent up to now is        7.3 secs

     total energy              =    -349.98960562 Ry
     Harris-Foulkes estimate   =    -349.98950369 Ry
     estimated scf accuracy    <       0.00015627 Ry

     total magnetization       =     0.00 Bohr mag/cell
     absolute magnetization    =     2.62 Bohr mag/cell

     iteration #  6     ecut=    80.00 Ry     beta= 0.70
     Davidson diagonalization with overlap
     ethr =  5.58E-07,  avg # of iterations =  3.5

     total cpu time spent up to now is        8.1 secs

     total energy              =    -349.98937291 Ry
     Harris-Foulkes estimate   =    -349.98965283 Ry
     estimated scf accuracy    <       0.00009954 Ry

     total magnetization       =     0.00 Bohr mag/cell
     absolute magnetization    =     2.68 Bohr mag/cell

     iteration #  7     ecut=    80.00 Ry     beta= 0.70
     Davidson diagonalization with overlap
     ethr =  3.56E-07,  avg # of iterations =  4.5

     total cpu time spent up to now is        9.2 secs

     total energy              =    -349.98992632 Ry
     Harris-Foulkes estimate   =    -349.99002126 Ry
     estimated scf accuracy    <       0.00002602 Ry

     total magnetization       =    -0.00 Bohr mag/cell
     absolute magnetization    =     2.92 Bohr mag/cell

     iteration #  8     ecut=    80.00 Ry     beta= 0.70
     Davidson diagonalization with overlap
     ethr =  9.29E-08,  avg # of iterations =  4.5

     Magnetic moment per site:
     atom:    1    charge:   12.2779    magn:    1.4188    constr:    0.0000
     atom:    2    charge:   12.2797    magn:   -1.4190    constr:    0.0000

     total cpu time spent up to now is       10.1 secs

     End of self-consistent calculation

 ------ SPIN UP ------------


          k = 0.0625 0.0625 0.0625 (  2013 PWs)   bands (ev):

   -54.2009 -52.6666 -25.5247 -25.5247 -25.5132 -23.8836 -23.8698 -23.8698
    10.7085  14.3341  14.3341  17.2171  17.2171  17.4367  19.3683  19.3683
    20.2778  20.6751

          k = 0.0625 0.0625 0.1875 (  2003 PWs)   bands (ev):

   -54.1948 -52.6665 -25.5516 -25.5108 -25.5029 -23.9277 -23.8793 -23.8785
    11.3308  14.6383  14.6399  17.0888  17.1444  17.6591  19.0020  19.5344
    19.5815  20.0160

          k = 0.0625 0.0625 0.3125 (  2003 PWs)   bands (ev):

   -54.1860 -52.6664 -25.5872 -25.4908 -25.4908 -23.9912 -23.8931 -23.8892
    12.4503  14.9655  15.2062  17.0352  17.0529  17.8084  18.3785  19.0580
    19.2374  19.7814

          k = 0.0625 0.0625 0.4375 (  2011 PWs)   bands (ev):

   -54.1797 -52.6664 -25.6119 -25.4825 -25.4765 -24.0357 -23.9031 -23.8969
    13.7565  14.7849  15.8855  16.8199  17.1487  17.7098  17.8232  18.7359
    19.0662  19.9230

          k = 0.0625 0.1875 0.1875 (  1999 PWs)   bands (ev):

   -54.1893 -52.6655 -25.5664 -25.5229 -25.4971 -23.9476 -23.8930 -23.8852
    11.9040  14.8305  15.0043  16.8102  16.9731  17.7426  19.0871  19.1567
    19.4456  19.6250

          k = 0.0625 0.1875 0.3125 (  2012 PWs)   bands (ev):

   -54.1817 -52.6640 -25.6012 -25.5309 -25.4848 -23.9830 -23.9071 -23.8918
    12.8981  15.0241  15.5474  16.6244  16.8361  17.3848  18.7871  19.0652
    19.3944  19.6769

          k = 0.0625 0.1875 0.4375 (  2008 PWs)   bands (ev):

   -54.1762 -52.6630 -25.6281 -25.5364 -25.4741 -24.0092 -23.9166 -23.8950
    13.9845  14.7854  16.0531  16.5184  16.8767  17.0529  18.5059  18.8785
    19.6601  20.1859

          k = 0.0625 0.3125 0.3125 (  2007 PWs)   bands (ev):

   -54.1756 -52.6606 -25.6266 -25.5826 -25.4752 -23.9760 -23.9238 -23.8938
    13.5471  14.8224  16.2511  16.3263  16.7898  16.9559  18.8793  19.2237
    19.5648  20.0069

          k = 0.0625 0.3125 0.4375 (  2016 PWs)   bands (ev):

   -54.1713 -52.6581 -25.6519 -25.6120 -25.4681 -23.9750 -23.9335 -23.8933
    14.0778  14.4849  16.1711  16.3633  16.9255  17.4415  18.9886  19.2088
    19.8032  20.6536

          k = 0.0625 0.4375 0.4375 (  2020 PWs)   bands (ev):

   -54.1678 -52.6547 -25.6700 -25.6628 -25.4638 -23.9532 -23.9443 -23.8920
    14.0335  14.2270  15.9434  16.0078  18.0491  18.4059  19.2052  19.4986
    19.5139  20.5571

          k = 0.1875 0.1875 0.1875 (  1992 PWs)   bands (ev):

   -54.1845 -52.6637 -25.5497 -25.5497 -25.5157 -23.9464 -23.9052 -23.9052
    12.4579  15.1919  15.1919  16.6480  16.6480  17.2186  19.3240  19.3240
    19.3524  20.1066

          k = 0.1875 0.1875 0.3125 (  2002 PWs)   bands (ev):

   -54.1777 -52.6613 -25.5974 -25.5321 -25.5257 -23.9702 -23.9232 -23.9076
    13.3893  15.4768  15.5108  16.4065  16.4991  16.7596  19.1067  19.4301
    19.5596  19.9873

          k = 0.1875 0.1875 0.4375 (  2014 PWs)   bands (ev):

   -54.1728 -52.6596 -25.6320 -25.5430 -25.5084 -23.9953 -23.9362 -23.9008
    14.3433  15.0717  15.8575  16.1500  16.5992  16.9652  18.8951  19.0583
    19.4920  20.2899

          k = 0.1875 0.3125 0.3125 (  2011 PWs)   bands (ev):

   -54.1720 -52.6574 -25.6058 -25.5842 -25.5186 -23.9678 -23.9405 -23.9206
    14.0892  15.2729  16.0662  16.2276  16.3141  16.4784  19.2611  19.4233
    19.5260  20.2220

          k = 0.1875 0.3125 0.4375 (  2010 PWs)   bands (ev):

   -54.1680 -52.6547 -25.6389 -25.5988 -25.5077 -23.9791 -23.9553 -23.9146
    14.5492  14.9519  15.9309  16.0896  16.6207  17.0928  19.1534  19.3820
    19.4779  20.2968

          k = 0.1875 0.4375 0.4375 (  2027 PWs)   bands (ev):

   -54.1646 -52.6513 -25.6460 -25.6429 -25.4999 -23.9713 -23.9645 -23.9254
    14.4639  14.7601  15.8267  15.8621  17.5534  17.5883  19.1986  19.2328
    19.7037  20.3234

          k = 0.3125 0.3125 0.3125 (  2016 PWs)   bands (ev):

   -54.1669 -52.6530 -25.5902 -25.5756 -25.5756 -23.9650 -23.9650 -23.9498
    14.8708  15.6956  15.8423  15.8423  16.2480  16.2480  19.3703  19.3703
    19.8829  19.8829

          k = 0.3125 0.3125 0.4375 (  2019 PWs)   bands (ev):

   -54.1633 -52.6499 -25.6229 -25.5871 -25.5535 -23.9865 -23.9828 -23.9468
    15.0529  15.5279  15.6953  16.0752  16.1797  16.8434  19.2302  19.2590
    19.7974  20.2168

          k = 0.3125 0.4375 0.4375 (  2001 PWs)   bands (ev):

   -54.1600 -52.6465 -25.6141 -25.6110 -25.5505 -23.9978 -23.9940 -23.9720
    15.0726  15.5644  15.6818  15.7883  16.8399  16.9157  19.1315  19.2008
    20.0259  20.3034

          k = 0.4375 0.4375 0.4375 (  1977 PWs)   bands (ev):

   -54.1567 -52.6431 -25.5939 -25.5853 -25.5853 -24.0156 -24.0156 -24.0060
    15.4376  15.5997  15.5997  16.4563  16.5118  16.5118  19.1114  19.1114
    20.3120  20.3120

 ------ SPIN DOWN ----------


          k = 0.0625 0.0625 0.0625 (  2013 PWs)   bands (ev):

   -54.2020 -52.6716 -25.5266 -25.5266 -25.5151 -23.8810 -23.8672 -23.8672
    10.7084  14.3335  14.3335  17.2181  17.2181  17.4377  19.3679  19.3679
    20.2788  20.6762

          k = 0.0625 0.0625 0.1875 (  2003 PWs)   bands (ev):

   -54.1958 -52.6715 -25.5535 -25.5127 -25.5049 -23.9250 -23.8767 -23.8759
    11.3308  14.6377  14.6393  17.0898  17.1453  17.6602  19.0017  19.5339
    19.5823  20.0169

          k = 0.0625 0.0625 0.3125 (  2003 PWs)   bands (ev):

   -54.1870 -52.6714 -25.5891 -25.4928 -25.4927 -23.9885 -23.8904 -23.8865
    12.4502  14.9650  15.2055  17.0360  17.0538  17.8095  18.3785  19.0587
    19.2382  19.7808

          k = 0.0625 0.0625 0.4375 (  2011 PWs)   bands (ev):

   -54.1808 -52.6714 -25.6139 -25.4845 -25.4785 -24.0330 -23.9004 -23.8941
    13.7564  14.7848  15.8844  16.8206  17.1497  17.7108  17.8239  18.7365
    19.0670  19.9235

          k = 0.0625 0.1875 0.1875 (  1999 PWs)   bands (ev):

   -54.1904 -52.6705 -25.5682 -25.5249 -25.4991 -23.9449 -23.8904 -23.8826
    11.9040  14.8299  15.0037  16.8111  16.9739  17.7437  19.0873  19.1570
    19.4452  19.6257

          k = 0.0625 0.1875 0.3125 (  2012 PWs)   bands (ev):

   -54.1827 -52.6690 -25.6031 -25.5329 -25.4867 -23.9804 -23.9045 -23.8891
    12.8981  15.0237  15.5468  16.6253  16.8366  17.3857  18.7876  19.0653
    19.3953  19.6765

          k = 0.0625 0.1875 0.4375 (  2008 PWs)   bands (ev):

   -54.1773 -52.6680 -25.6300 -25.5383 -25.4761 -24.0066 -23.9140 -23.8923
    13.9844  14.7853  16.0522  16.5190  16.8774  17.0538  18.5067  18.8784
    19.6603  20.1859

          k = 0.0625 0.3125 0.3125 (  2007 PWs)   bands (ev):

   -54.1766 -52.6656 -25.6284 -25.5845 -25.4772 -23.9734 -23.9212 -23.8911
    13.5472  14.8222  16.2514  16.3263  16.7907  16.9560  18.8797  19.2238
    19.5643  20.0079

          k = 0.0625 0.3125 0.4375 (  2016 PWs)   bands (ev):

   -54.1724 -52.6632 -25.6537 -25.6138 -25.4701 -23.9725 -23.9309 -23.8906
    14.0780  14.4849  16.1719  16.3641  16.9247  17.4417  18.9884  19.2092
    19.8027  20.6545

          k = 0.0625 0.4375 0.4375 (  2020 PWs)   bands (ev):

   -54.1689 -52.6597 -25.6717 -25.6646 -25.4658 -23.9507 -23.9418 -23.8893
    14.0340  14.2268  15.9442  16.0086  18.0484  18.4058  19.2045  19.4977
    19.5148  20.5580

          k = 0.1875 0.1875 0.1875 (  1992 PWs)   bands (ev):

   -54.1856 -52.6687 -25.5516 -25.5516 -25.5177 -23.9437 -23.9026 -23.9026
    12.4579  15.1914  15.1914  16.6488  16.6488  17.2196  19.3237  19.3237
    19.3533  20.1075

          k = 0.1875 0.1875 0.3125 (  2002 PWs)   bands (ev):

   -54.1787 -52.6663 -25.5993 -25.5341 -25.5277 -23.9676 -23.9205 -23.9050
    13.3893  15.4765  15.5103  16.4070  16.4999  16.7602  19.1068  19.4307
    19.5591  19.9882

          k = 0.1875 0.1875 0.4375 (  2014 PWs)   bands (ev):

   -54.1739 -52.6646 -25.6339 -25.5449 -25.5104 -23.9927 -23.9335 -23.8981
    14.3434  15.0718  15.8573  16.1502  16.6000  16.9658  18.8959  19.0583
    19.4910  20.2908

          k = 0.1875 0.3125 0.3125 (  2011 PWs)   bands (ev):

   -54.1730 -52.6625 -25.6077 -25.5861 -25.5205 -23.9652 -23.9380 -23.9179
    14.0893  15.2729  16.0669  16.2284  16.3137  16.4785  19.2607  19.4241
    19.5253  20.2230

          k = 0.1875 0.3125 0.4375 (  2010 PWs)   bands (ev):

   -54.1690 -52.6597 -25.6408 -25.6007 -25.5096 -23.9765 -23.9526 -23.9120
    14.5496  14.9518  15.9317  16.0902  16.6204  17.0931  19.1527  19.3822
    19.4775  20.2978

          k = 0.1875 0.4375 0.4375 (  2027 PWs)   bands (ev):

   -54.1656 -52.6563 -25.6479 -25.6447 -25.5019 -23.9688 -23.9619 -23.9227
    14.4645  14.7599  15.8275  15.8629  17.5533  17.5886  19.1975  19.2312
    19.7046  20.3243

          k = 0.3125 0.3125 0.3125 (  2016 PWs)   bands (ev):

   -54.1679 -52.6580 -25.5920 -25.5775 -25.5775 -23.9623 -23.9623 -23.9471
    14.8711  15.6961  15.8430  15.8430  16.2476  16.2476  19.3694  19.3694
    19.8838  19.8838

          k = 0.3125 0.3125 0.4375 (  2019 PWs)   bands (ev):

   -54.1643 -52.6549 -25.6248 -25.5890 -25.5555 -23.9839 -23.9801 -23.9442
    15.0536  15.5283  15.6960  16.0757  16.1795  16.8436  19.2292  19.2575
    19.7983  20.2177

          k = 0.3125 0.4375 0.4375 (  2001 PWs)   bands (ev):

   -54.1610 -52.6515 -25.6160 -25.6129 -25.5525 -23.9951 -23.9913 -23.9693
    15.0733  15.5648  15.6826  15.7887  16.8403  16.9160  19.1297  19.1994
    20.0268  20.3043

          k = 0.4375 0.4375 0.4375 (  1977 PWs)   bands (ev):

   -54.1577 -52.6481 -25.5959 -25.5873 -25.5873 -24.0129 -24.0129 -24.0034
    15.4384  15.6004  15.6004  16.4567  16.5121  16.5121  19.1095  19.1095
    20.3129  20.3129

     the Fermi energy is    18.2005 ev

!    total energy              =    -349.99008863 Ry
     Harris-Foulkes estimate   =    -349.99008801 Ry
     estimated scf accuracy    <       0.00000053 Ry

     The total energy is the sum of the following terms:

     one-electron contribution =    -121.61193796 Ry
     hartree contribution      =      75.61483933 Ry
     xc contribution           =     -44.57325591 Ry
     ewald contribution        =    -259.42040008 Ry
     smearing contrib. (-TS)   =       0.00066600 Ry

     total magnetization       =    -0.00 Bohr mag/cell
     absolute magnetization    =     3.04 Bohr mag/cell

     convergence has been achieved in   8 iterations

     Writing output data file cr-240.save/

     init_run     :      0.42s CPU      0.43s WALL (       1 calls)
     electrons    :      8.07s CPU      8.32s WALL (       1 calls)

     Called by init_run:
     wfcinit      :      0.25s CPU      0.25s WALL (       1 calls)
     potinit      :      0.01s CPU      0.01s WALL (       1 calls)
     hinit0       :      0.15s CPU      0.15s WALL (       1 calls)

     Called by electrons:
     c_bands      :      7.12s CPU      7.32s WALL (       9 calls)
     sum_band     :      0.82s CPU      0.87s WALL (       9 calls)
     v_of_rho     :      0.05s CPU      0.05s WALL (       9 calls)
     newd         :      0.08s CPU      0.09s WALL (       9 calls)
     mix_rho      :      0.01s CPU      0.01s WALL (       9 calls)

     Called by c_bands:
     init_us_2    :      0.10s CPU      0.11s WALL (     760 calls)
     cegterg      :      6.73s CPU      6.92s WALL (     360 calls)

     Called by sum_band:
     sum_band:bec :      0.01s CPU      0.01s WALL (     360 calls)
     addusdens    :      0.10s CPU      0.11s WALL (       9 calls)

     Called by *egterg:
     h_psi        :      3.63s CPU      3.74s WALL (    1665 calls)
     s_psi        :      0.39s CPU      0.40s WALL (    1665 calls)
     g_psi        :      0.03s CPU      0.04s WALL (    1265 calls)
     cdiaghg      :      1.06s CPU      1.08s WALL (    1585 calls)

     Called by h_psi:
     h_psi:pot    :      3.62s CPU      3.72s WALL (    1665 calls)
     h_psi:calbec :      0.52s CPU      0.54s WALL (    1665 calls)
     vloc_psi     :      2.70s CPU      2.78s WALL (    1665 calls)
     add_vuspsi   :      0.39s CPU      0.41s WALL (    1665 calls)

     General routines
     calbec       :      0.69s CPU      0.71s WALL (    2025 calls)
     fft          :      0.03s CPU      0.03s WALL (     189 calls)
     ffts         :      0.00s CPU      0.00s WALL (      18 calls)
     fftw         :      2.89s CPU      2.98s WALL (   44764 calls)

     Parallel routines
     fft_scatt_xy :      0.22s CPU      0.22s WALL (   44971 calls)
     fft_scatt_yz :      1.19s CPU      1.23s WALL (   44971 calls)

     PWSCF        :      9.93s CPU     10.22s WALL


   This run was terminated on:  22:57:17   9Mar2022            

=------------------------------------------------------------------------------=
   JOB DONE.
=------------------------------------------------------------------------------=
