
     Program PWSCF v.6.4.1 starts on 20Jun2022 at  6:19: 7 

     This program is part of the open-source Quantum ESPRESSO suite
     for quantum simulation of materials; please cite
         "P. Giannozzi et al., J. Phys.:Condens. Matter 21 395502 (2009);
         "P. Giannozzi et al., J. Phys.:Condens. Matter 29 465901 (2017);
          URL http://www.quantum-espresso.org", 
     in publications or presentations arising from this work. More details at
     http://www.quantum-espresso.org/quote

     Parallel version (MPI), running on     5 processors

     MPI processes distributed on     1 nodes
     R & G space division:  proc/nbgrp/npool/nimage =       5
     Reading input from distance-1.4.in

     Current dimensions of program PWSCF are:
     Max number of different atomic species (ntypx) = 10
     Max number of k-points (npk) =  40000
     Max angular momentum in pseudopotentials (lmaxx) =  3

     IMPORTANT: XC functional enforced from input :
     Exchange-correlation      = RVV10 ( 1  4 13  4 3 0)
     Any further DFT definition will be discarded
     Please, verify this is what you really want

               file H.pbe-rrkjus.UPF: wavefunction(s)  1S renormalized
               file H.pbe-rrkjus.UPF: wavefunction(s)  1S renormalized

     Subspace diagonalization in iterative solution of the eigenvalue problem:
     a serial algorithm will be used


     Parallelization info
     --------------------
     sticks:   dense  smooth     PW     G-vecs:    dense   smooth      PW
     Min        3662    2095    542               487826   210779   27834
     Max        3663    2096    543               487829   210784   27841
     Sum       18313   10477   2713              2439139  1053907  139193



     bravais-lattice index     =            4
     lattice parameter (alat)  =      23.2937  a.u.
     unit-cell volume          =   13319.7822 (a.u.)^3
     number of atoms/cell      =           52
     number of atomic types    =            3
     number of electrons       =       202.00
     number of Kohn-Sham states=          121
     kinetic-energy cutoff     =      70.0000  Ry
     charge density cutoff     =     490.0000  Ry
     convergence threshold     =      1.0E-06
     mixing beta               =       0.7000
     number of iterations used =            8  plain     mixing
     Exchange-correlation      = RVV10 ( 1  4 13  4 3 0)

     celldm(1)=  23.293684  celldm(2)=   0.000000  celldm(3)=   1.216892
     celldm(4)=   0.000000  celldm(5)=   0.000000  celldm(6)=   0.000000

     crystal axes: (cart. coord. in units of alat)
               a(1) = (   1.000000   0.000000   0.000000 )  
               a(2) = (  -0.500000   0.866025   0.000000 )  
               a(3) = (   0.000000   0.000000   1.216892 )  

     reciprocal axes: (cart. coord. in units 2 pi/alat)
               b(1) = (  1.000000  0.577350 -0.000000 )  
               b(2) = (  0.000000  1.154701  0.000000 )  
               b(3) = (  0.000000 -0.000000  0.821766 )  


     PseudoPot. # 1 for H  read from file:
     /home/cristian/Escritorio/Proyecto_Grafeno/pseudopotenciales/H.pbe-rrkjus.UPF
     MD5 check sum: 7cc9d459525c9a0585f487a71c3c9563
     Pseudo is Ultrasoft, Zval =  1.0
     Generated by new atomic code, or converted to UPF format
     Using radial grid of 1061 points,  2 beta functions with: 
                l(1) =   0
                l(2) =   0
     Q(r) pseudized with 0 coefficients 


     PseudoPot. # 2 for H  read from file:
     /home/cristian/Escritorio/Proyecto_Grafeno/pseudopotenciales/H.pbe-rrkjus.UPF
     MD5 check sum: 7cc9d459525c9a0585f487a71c3c9563
     Pseudo is Ultrasoft, Zval =  1.0
     Generated by new atomic code, or converted to UPF format
     Using radial grid of 1061 points,  2 beta functions with: 
                l(1) =   0
                l(2) =   0
     Q(r) pseudized with 0 coefficients 


     PseudoPot. # 3 for C  read from file:
     /home/cristian/Escritorio/Proyecto_Grafeno/pseudopotenciales/C.pbe-n-rrkjus_psl.1.0.0.UPF
     MD5 check sum: 1fdd950c42eb37d8afe3dd2f8d12311e
     Pseudo is Ultrasoft + core correction, Zval =  4.0
     Generated using "atomic" code by A. Dal Corso v.6.3MaX
     Using radial grid of 1073 points,  4 beta functions with: 
                l(1) =   0
                l(2) =   0
                l(3) =   1
                l(4) =   1
     Q(r) pseudized with 0 coefficients 


     vdW kernel table read from file rVV10_kernel_table
     MD5 check sum: b8e2538accc0c0b3206b45ba4daaba6c

     atomic species   valence    mass     pseudopotential
        H1             1.00     1.00794     H ( 1.00)
        H2             1.00     1.00794     H ( 1.00)
        C              4.00    12.01070     C ( 1.00)

     No symmetry found



   Cartesian axes

     site n.     atom                  positions (alat units)
         1           H1  tau(   1) = (   0.2666667   0.4618802   0.1135766  )
         2           H2  tau(   2) = (   0.2666667   0.4618802   0.1745892  )
         3           C   tau(   3) = (   0.0000000   0.0000000   0.0000000  )
         4           C   tau(   4) = (   0.0000000   0.1154701   0.0000000  )
         5           C   tau(   5) = (  -0.1000000   0.1732051   0.0000000  )
         6           C   tau(   6) = (  -0.1000000   0.2886751   0.0000000  )
         7           C   tau(   7) = (  -0.2000000   0.3464102   0.0000000  )
         8           C   tau(   8) = (  -0.2000000   0.4618802   0.0000000  )
         9           C   tau(   9) = (  -0.3000000   0.5196152   0.0000000  )
        10           C   tau(  10) = (  -0.3000000   0.6350853   0.0000000  )
        11           C   tau(  11) = (  -0.4000000   0.6928203   0.0000000  )
        12           C   tau(  12) = (  -0.4000000   0.8082904   0.0000000  )
        13           C   tau(  13) = (   0.2000000   0.0000000   0.0000000  )
        14           C   tau(  14) = (   0.2000000   0.1154701   0.0000000  )
        15           C   tau(  15) = (   0.1000000   0.1732051   0.0000000  )
        16           C   tau(  16) = (   0.1000000   0.2886751   0.0000000  )
        17           C   tau(  17) = (   0.0000000   0.3464102   0.0000000  )
        18           C   tau(  18) = (   0.0000000   0.4618802   0.0000000  )
        19           C   tau(  19) = (  -0.1000000   0.5196152   0.0000000  )
        20           C   tau(  20) = (  -0.1000000   0.6350853   0.0000000  )
        21           C   tau(  21) = (  -0.2000000   0.6928203   0.0000000  )
        22           C   tau(  22) = (  -0.2000000   0.8082904   0.0000000  )
        23           C   tau(  23) = (   0.4000000   0.0000000   0.0000000  )
        24           C   tau(  24) = (   0.4000000   0.1154701   0.0000000  )
        25           C   tau(  25) = (   0.3000000   0.1732051   0.0000000  )
        26           C   tau(  26) = (   0.3000000   0.2886751   0.0000000  )
        27           C   tau(  27) = (   0.2000000   0.3464102   0.0000000  )
        28           C   tau(  28) = (   0.2000000   0.4618802   0.0000000  )
        29           C   tau(  29) = (   0.1000000   0.5196152   0.0000000  )
        30           C   tau(  30) = (   0.1000000   0.6350853   0.0000000  )
        31           C   tau(  31) = (   0.0000000   0.6928203   0.0000000  )
        32           C   tau(  32) = (   0.0000000   0.8082904   0.0000000  )
        33           C   tau(  33) = (   0.6000000   0.0000000   0.0000000  )
        34           C   tau(  34) = (   0.6000000   0.1154701   0.0000000  )
        35           C   tau(  35) = (   0.5000000   0.1732051   0.0000000  )
        36           C   tau(  36) = (   0.5000000   0.2886751   0.0000000  )
        37           C   tau(  37) = (   0.4000000   0.3464102   0.0000000  )
        38           C   tau(  38) = (   0.4000000   0.4618802   0.0000000  )
        39           C   tau(  39) = (   0.3000000   0.5196152   0.0000000  )
        40           C   tau(  40) = (   0.3000000   0.6350853   0.0000000  )
        41           C   tau(  41) = (   0.2000000   0.6928203   0.0000000  )
        42           C   tau(  42) = (   0.2000000   0.8082904   0.0000000  )
        43           C   tau(  43) = (   0.8000000   0.0000000   0.0000000  )
        44           C   tau(  44) = (   0.8000000   0.1154701   0.0000000  )
        45           C   tau(  45) = (   0.7000000   0.1732051   0.0000000  )
        46           C   tau(  46) = (   0.7000000   0.2886751   0.0000000  )
        47           C   tau(  47) = (   0.6000000   0.3464102   0.0000000  )
        48           C   tau(  48) = (   0.6000000   0.4618802   0.0000000  )
        49           C   tau(  49) = (   0.5000000   0.5196152   0.0000000  )
        50           C   tau(  50) = (   0.5000000   0.6350853   0.0000000  )
        51           C   tau(  51) = (   0.4000000   0.6928203   0.0000000  )
        52           C   tau(  52) = (   0.4000000   0.8082904   0.0000000  )

     number of k points=     4  Marzari-Vanderbilt smearing, width (Ry)=  0.0010
                       cart. coord. in units 2pi/alat
        k(    1) = (   0.0000000   0.0000000   0.0000000), wk =   0.5000000
        k(    2) = (   0.0000000  -0.5773503   0.0000000), wk =   0.5000000
        k(    3) = (   0.5000000  -0.2886751   0.0000000), wk =   0.5000000
        k(    4) = (  -0.5000000  -0.2886751   0.0000000), wk =   0.5000000

     Dense  grid:  2439139 G-vectors     FFT dimensions: ( 180, 180, 200)

     Smooth grid:  1053907 G-vectors     FFT dimensions: ( 125, 125, 160)

     Estimated max dynamical RAM per process >       1.39 GB

     Estimated total dynamical RAM >       6.95 GB

     Check: negative core charge=   -0.000001

     Initial potential from superposition of free atoms

     starting charge  201.80551, renormalised to  202.00000

     negative rho (up, down):  1.130E-03 0.000E+00


---------------------------------------------------------------------------------
Carrying out rVV10 run using the following parameters:
Nqs =      20    Nr_points =    1024   r_max =   100.000
b_value =  6.30000    beta =  0.00901
     q_mesh =  0.00010000  0.00030000  0.00058939  0.00100810
               0.00161396  0.00249058  0.00375900  0.00559430
               0.00824984  0.01209221  0.01765183  0.02569619
               0.03733578  0.05417739  0.07854596  0.11380545
               0.16482331  0.23864234  0.34545298  0.50000000

Gradients computed in Reciprocal space

---------------------------------------------------------------------------------


     Starting wfcs are  202 randomized atomic wfcs

     total cpu time spent up to now is      164.5 secs

     Self-consistent Calculation

     iteration #  1     ecut=    70.00 Ry     beta= 0.70
     Davidson diagonalization with overlap
     ethr =  1.00E-02,  avg # of iterations =  2.5

     negative rho (up, down):  1.275E-03 0.000E+00

     total cpu time spent up to now is      446.8 secs

     total energy              =    -624.00715860 Ry
     Harris-Foulkes estimate   =    -628.38114512 Ry
     estimated scf accuracy    <       6.84878133 Ry

     iteration #  2     ecut=    70.00 Ry     beta= 0.70
     Davidson diagonalization with overlap
     ethr =  3.39E-03,  avg # of iterations =  7.0

     negative rho (up, down):  1.409E-03 0.000E+00

     total cpu time spent up to now is      718.8 secs

     total energy              =    -623.42110290 Ry
     Harris-Foulkes estimate   =    -626.42535560 Ry
     estimated scf accuracy    <       5.10786090 Ry

     iteration #  3     ecut=    70.00 Ry     beta= 0.70
     Davidson diagonalization with overlap
     ethr =  2.53E-03,  avg # of iterations =  5.8

     negative rho (up, down):  1.515E-03 0.000E+00

     total cpu time spent up to now is     1007.5 secs

     total energy              =    -624.62182576 Ry
     Harris-Foulkes estimate   =    -626.49356397 Ry
     estimated scf accuracy    <       5.65109820 Ry

     iteration #  4     ecut=    70.00 Ry     beta= 0.70
     Davidson diagonalization with overlap
     ethr =  2.53E-03,  avg # of iterations =  3.5

     negative rho (up, down):  1.562E-03 0.000E+00

     total cpu time spent up to now is     1214.9 secs

     total energy              =    -625.51250616 Ry
     Harris-Foulkes estimate   =    -625.58208897 Ry
     estimated scf accuracy    <       0.14844005 Ry

     iteration #  5     ecut=    70.00 Ry     beta= 0.70
     Davidson diagonalization with overlap
     ethr =  7.35E-05,  avg # of iterations =  8.2

     negative rho (up, down):  1.714E-03 0.000E+00

     total cpu time spent up to now is     1496.9 secs

     total energy              =    -625.55018771 Ry
     Harris-Foulkes estimate   =    -625.55356881 Ry
     estimated scf accuracy    <       0.00806317 Ry

     iteration #  6     ecut=    70.00 Ry     beta= 0.70
     Davidson diagonalization with overlap
     ethr =  3.99E-06,  avg # of iterations = 11.8

     negative rho (up, down):  1.897E-03 0.000E+00

     total cpu time spent up to now is     1791.7 secs

     total energy              =    -625.55143323 Ry
     Harris-Foulkes estimate   =    -625.55283628 Ry
     estimated scf accuracy    <       0.00267373 Ry

     iteration #  7     ecut=    70.00 Ry     beta= 0.70
     Davidson diagonalization with overlap
     ethr =  1.32E-06,  avg # of iterations =  6.0

     negative rho (up, down):  1.919E-03 0.000E+00

     total cpu time spent up to now is     2057.3 secs

     total energy              =    -625.55190596 Ry
     Harris-Foulkes estimate   =    -625.55253147 Ry
     estimated scf accuracy    <       0.00145637 Ry

     iteration #  8     ecut=    70.00 Ry     beta= 0.70
     Davidson diagonalization with overlap
     ethr =  7.21E-07,  avg # of iterations =  2.2

     negative rho (up, down):  1.914E-03 0.000E+00

     total cpu time spent up to now is     2266.8 secs

     total energy              =    -625.55218347 Ry
     Harris-Foulkes estimate   =    -625.55223836 Ry
     estimated scf accuracy    <       0.00011789 Ry

     iteration #  9     ecut=    70.00 Ry     beta= 0.70
     Davidson diagonalization with overlap
     ethr =  5.84E-08,  avg # of iterations =  2.0

     negative rho (up, down):  1.921E-03 0.000E+00

     total cpu time spent up to now is     2499.7 secs

     total energy              =    -625.55220783 Ry
     Harris-Foulkes estimate   =    -625.55221525 Ry
     estimated scf accuracy    <       0.00001326 Ry

     iteration # 10     ecut=    70.00 Ry     beta= 0.70
     Davidson diagonalization with overlap
     ethr =  6.56E-09,  avg # of iterations =  2.2

     negative rho (up, down):  1.926E-03 0.000E+00

     total cpu time spent up to now is     2737.2 secs

     total energy              =    -625.55221021 Ry
     Harris-Foulkes estimate   =    -625.55221184 Ry
     estimated scf accuracy    <       0.00000176 Ry

     iteration # 11     ecut=    70.00 Ry     beta= 0.70
     Davidson diagonalization with overlap
     ethr =  8.72E-10,  avg # of iterations =  2.2

     negative rho (up, down):  1.927E-03 0.000E+00

     total cpu time spent up to now is     2971.4 secs

     End of self-consistent calculation

          k = 0.0000 0.0000 0.0000 (131685 PWs)   bands (ev):

   -21.2801 -20.4489 -20.3244 -20.3197 -20.3141 -20.3134 -20.3125 -18.5903
   -18.4920 -18.4915 -18.4817 -18.4807 -18.4794 -17.6742 -17.6025 -17.5981
   -17.5896 -17.5884 -17.5881 -15.5370 -15.4659 -15.4484 -15.4458 -15.4427
   -15.4410 -14.5082 -14.4544 -14.4501 -14.4377 -14.4377 -14.4364 -13.1661
   -13.1109 -13.1098 -13.0991 -13.0983 -13.0968 -10.8860 -10.7540 -10.7470
   -10.7430 -10.7364 -10.7341 -10.6614 -10.6329 -10.6191 -10.6188 -10.6132
   -10.6126  -9.9092  -9.2875  -9.2588  -9.2486  -9.2463  -9.2427  -9.2412
    -9.0452  -8.2713  -8.2711  -8.2618  -8.2616  -8.2606  -8.0369  -8.0144
    -8.0088  -7.9925  -7.9920  -7.9902  -7.9615  -7.9540  -7.9470  -7.9457
    -7.9428  -7.9401  -7.1139  -6.3687  -6.3619  -6.3538  -6.3494  -6.3480
    -6.3439  -6.1597  -6.1461  -6.1329  -6.1310  -6.1305  -5.6846  -5.2697
    -5.2463  -5.2347  -5.2339  -5.2334  -4.8861  -4.8819  -4.5857  -3.2970
    -3.2540  -3.2515  -3.2487  -3.2473  -3.1481  -0.5153  -0.4992  -0.4627
    -0.4588  -0.4551  -0.4517   1.2702   1.3392   1.3662   1.3961   1.3994
     1.4019   1.4179   2.2176   2.5277   2.5315   2.5719   2.5737   2.5744
     2.6856

          k = 0.0000-0.5774 0.0000 (131762 PWs)   bands (ev):

   -21.0731 -21.0171 -20.5930 -20.5505 -19.7038 -19.6277 -19.6240 -19.6205
   -19.1945 -19.1666 -18.3194 -18.2706 -18.2548 -18.2538 -17.0125 -16.9508
   -16.9398 -16.9380 -16.5802 -16.5462 -16.5361 -16.5344 -16.0692 -15.3455
   -15.3306 -14.9936 -14.1777 -14.1337 -14.1201 -14.1163 -13.6826 -13.6515
   -12.7499 -12.7323 -12.7153 -12.7115 -11.9475 -11.9225 -11.8109 -11.7701
   -11.7596 -11.7588 -10.5838 -10.5468 -10.4037 -10.3247 -10.3075 -10.3068
    -9.8731  -9.2777  -9.2725  -9.2693  -9.2671  -9.0991  -8.9291  -8.9105
    -8.8934  -8.8907  -8.7898  -8.5424  -8.4361  -8.4339  -8.4209  -8.4189
    -8.2389  -8.0458  -7.5206  -7.5175  -7.5118  -7.5060  -7.4565  -7.4520
    -7.4447  -7.3455  -7.3295  -7.1452  -7.1264  -7.0803  -6.9283  -6.4056
    -6.2853  -6.2748  -5.9323  -5.9010  -5.8988  -5.7965  -5.7826  -5.4195
    -5.3445  -5.3367  -4.4813  -4.4639  -4.4587  -4.3578  -4.2882  -4.2587
    -4.2551  -4.1495  -3.8700  -2.7980  -2.7569  -0.7621  -0.7525  -0.1060
     0.2528   0.2560   0.2994   0.3025   0.8902   0.9186   0.9438   0.9490
     1.6037   1.7318   2.2314   2.3487   2.4057   2.5206   2.5462   2.5613
     2.5675

          k = 0.5000-0.2887 0.0000 (131762 PWs)   bands (ev):

   -21.0731 -21.0171 -20.5930 -20.5505 -19.7038 -19.6277 -19.6240 -19.6205
   -19.1945 -19.1666 -18.3194 -18.2706 -18.2548 -18.2538 -17.0125 -16.9508
   -16.9398 -16.9380 -16.5802 -16.5462 -16.5361 -16.5344 -16.0692 -15.3455
   -15.3306 -14.9936 -14.1777 -14.1337 -14.1201 -14.1163 -13.6826 -13.6515
   -12.7499 -12.7323 -12.7153 -12.7115 -11.9475 -11.9225 -11.8109 -11.7701
   -11.7596 -11.7588 -10.5838 -10.5468 -10.4037 -10.3247 -10.3075 -10.3068
    -9.8731  -9.2777  -9.2725  -9.2693  -9.2671  -9.0991  -8.9291  -8.9105
    -8.8934  -8.8907  -8.7898  -8.5424  -8.4361  -8.4339  -8.4209  -8.4189
    -8.2389  -8.0458  -7.5206  -7.5175  -7.5118  -7.5060  -7.4565  -7.4520
    -7.4447  -7.3455  -7.3295  -7.1452  -7.1264  -7.0803  -6.9283  -6.4056
    -6.2853  -6.2748  -5.9323  -5.9011  -5.8988  -5.7965  -5.7826  -5.4195
    -5.3445  -5.3367  -4.4813  -4.4639  -4.4587  -4.3578  -4.2882  -4.2587
    -4.2551  -4.1495  -3.8700  -2.7980  -2.7569  -0.7621  -0.7525  -0.1060
     0.2528   0.2560   0.2994   0.3025   0.8902   0.9186   0.9438   0.9490
     1.6037   1.7318   2.2314   2.3487   2.4057   2.5206   2.5462   2.5613
     2.5675

          k =-0.5000-0.2887 0.0000 (131762 PWs)   bands (ev):

   -21.0744 -21.0153 -20.5926 -20.5520 -19.7021 -19.6265 -19.6255 -19.6210
   -19.1927 -19.1670 -18.3295 -18.2686 -18.2532 -18.2519 -16.9944 -16.9566
   -16.9407 -16.9398 -16.5936 -16.5400 -16.5374 -16.5340 -16.0574 -15.3629
   -15.3267 -15.0091 -14.1565 -14.1334 -14.1243 -14.1156 -13.6583 -13.6501
   -12.7963 -12.7226 -12.7151 -12.7118 -11.9609 -11.9242 -11.7784 -11.7700
   -11.7642 -11.7621 -10.5981 -10.5435 -10.3715 -10.3189 -10.3064 -10.3053
    -9.9067  -9.2780  -9.2722  -9.2671  -9.2663  -9.0979  -8.9348  -8.9054
    -8.8950  -8.8919  -8.7950  -8.5424  -8.4500  -8.4246  -8.4229  -8.4166
    -8.2365  -8.0237  -7.5220  -7.5168  -7.5089  -7.5085  -7.4566  -7.4519
    -7.4454  -7.3417  -7.3309  -7.1315  -7.1242  -7.0792  -6.9349  -6.4789
    -6.2827  -6.2719  -5.9166  -5.8995  -5.8974  -5.8027  -5.7800  -5.3561
    -5.3519  -5.3158  -4.5137  -4.4621  -4.4599  -4.3921  -4.2660  -4.2582
    -4.2563  -4.1251  -3.9255  -2.7811  -2.7369  -0.7749  -0.7424  -0.1029
     0.2520   0.2735   0.2822   0.3025   0.8512   0.9256   0.9445   0.9496
     1.6047   1.7364   2.2301   2.3595   2.5047   2.5063   2.5481   2.5570
     2.5625

     the Fermi energy is    -1.7910 ev

!    total energy              =    -625.55221047 Ry
     Harris-Foulkes estimate   =    -625.55221068 Ry
     estimated scf accuracy    <       0.00000013 Ry

     The total energy is the sum of the following terms:

     one-electron contribution =   -3970.12129562 Ry
     hartree contribution      =    2021.54100021 Ry
     xc contribution           =    -235.42394800 Ry
     ewald contribution        =    1558.45203295 Ry
     smearing contrib. (-TS)   =       0.00000000 Ry

     convergence has been achieved in  11 iterations

     Writing output data file gr-12-baricentro.save/

     init_run     :    162.50s CPU    164.04s WALL (       1 calls)
     electrons    :   2782.66s CPU   2807.02s WALL (       1 calls)

     Called by init_run:
     wfcinit      :    115.21s CPU    115.91s WALL (       1 calls)
     potinit      :     22.96s CPU     23.45s WALL (       1 calls)
     hinit0       :     19.05s CPU     19.10s WALL (       1 calls)

     Called by electrons:
     c_bands      :   2313.04s CPU   2325.30s WALL (      11 calls)
     sum_band     :    311.04s CPU    314.98s WALL (      11 calls)
     v_of_rho     :    112.22s CPU    118.22s WALL (      12 calls)
     newd         :     55.12s CPU     57.88s WALL (      12 calls)
     mix_rho      :      2.89s CPU      2.93s WALL (      11 calls)

     Called by c_bands:
     init_us_2    :      5.60s CPU      5.66s WALL (      92 calls)
     cegterg      :   2298.43s CPU   2310.66s WALL (      44 calls)

     Called by sum_band:
     sum_band:bec :      0.03s CPU      0.03s WALL (      44 calls)
     addusdens    :     77.67s CPU     80.41s WALL (      11 calls)

     Called by *egterg:
     h_psi        :   1239.46s CPU   1248.39s WALL (     262 calls)
     s_psi        :    386.48s CPU    386.58s WALL (     262 calls)
     g_psi        :      1.68s CPU      1.68s WALL (     214 calls)
     cdiaghg      :     21.71s CPU     21.72s WALL (     258 calls)

     Called by h_psi:
     h_psi:pot    :   1238.03s CPU   1245.33s WALL (     262 calls)
     h_psi:calbec :    390.73s CPU    390.83s WALL (     262 calls)
     vloc_psi     :    459.85s CPU    467.02s WALL (     262 calls)
     add_vuspsi   :    387.44s CPU    387.48s WALL (     262 calls)

     General routines
     calbec       :    526.65s CPU    526.75s WALL (     306 calls)
     fft          :     62.37s CPU     64.60s WALL (     754 calls)
     ffts         :      0.67s CPU      0.70s WALL (      23 calls)
     fftw         :    466.78s CPU    473.86s WALL (   35892 calls)
     interpolate  :      1.55s CPU      1.59s WALL (      12 calls)

     Parallel routines
     fft_scatt_xy :    116.36s CPU    116.90s WALL (   36669 calls)
     fft_scatt_yz :    148.73s CPU    155.51s WALL (   36669 calls)

     PWSCF        :  49m 6.01s CPU  49m32.68s WALL


   This run was terminated on:   7: 8:40  20Jun2022            

=------------------------------------------------------------------------------=
   JOB DONE.
=------------------------------------------------------------------------------=
