
     Program PWSCF v.6.4.1 starts on 20Jun2022 at  2:31: 7 

     This program is part of the open-source Quantum ESPRESSO suite
     for quantum simulation of materials; please cite
         "P. Giannozzi et al., J. Phys.:Condens. Matter 21 395502 (2009);
         "P. Giannozzi et al., J. Phys.:Condens. Matter 29 465901 (2017);
          URL http://www.quantum-espresso.org", 
     in publications or presentations arising from this work. More details at
     http://www.quantum-espresso.org/quote

     Parallel version (MPI), running on     5 processors

     MPI processes distributed on     1 nodes
     R & G space division:  proc/nbgrp/npool/nimage =       5
     Reading input from distance-2.6.in

     Current dimensions of program PWSCF are:
     Max number of different atomic species (ntypx) = 10
     Max number of k-points (npk) =  40000
     Max angular momentum in pseudopotentials (lmaxx) =  3

     IMPORTANT: XC functional enforced from input :
     Exchange-correlation      = RVV10 ( 1  4 13  4 3 0)
     Any further DFT definition will be discarded
     Please, verify this is what you really want

               file H.pbe-rrkjus.UPF: wavefunction(s)  1S renormalized
               file H.pbe-rrkjus.UPF: wavefunction(s)  1S renormalized

     Subspace diagonalization in iterative solution of the eigenvalue problem:
     a serial algorithm will be used


     Parallelization info
     --------------------
     sticks:   dense  smooth     PW     G-vecs:    dense   smooth      PW
     Min        3662    2095    542               487826   210779   27834
     Max        3663    2096    543               487829   210784   27841
     Sum       18313   10477   2713              2439139  1053907  139193



     bravais-lattice index     =            4
     lattice parameter (alat)  =      23.2937  a.u.
     unit-cell volume          =   13319.7822 (a.u.)^3
     number of atoms/cell      =           52
     number of atomic types    =            3
     number of electrons       =       202.00
     number of Kohn-Sham states=          121
     kinetic-energy cutoff     =      70.0000  Ry
     charge density cutoff     =     490.0000  Ry
     convergence threshold     =      1.0E-06
     mixing beta               =       0.7000
     number of iterations used =            8  plain     mixing
     Exchange-correlation      = RVV10 ( 1  4 13  4 3 0)

     celldm(1)=  23.293684  celldm(2)=   0.000000  celldm(3)=   1.216892
     celldm(4)=   0.000000  celldm(5)=   0.000000  celldm(6)=   0.000000

     crystal axes: (cart. coord. in units of alat)
               a(1) = (   1.000000   0.000000   0.000000 )  
               a(2) = (  -0.500000   0.866025   0.000000 )  
               a(3) = (   0.000000   0.000000   1.216892 )  

     reciprocal axes: (cart. coord. in units 2 pi/alat)
               b(1) = (  1.000000  0.577350 -0.000000 )  
               b(2) = (  0.000000  1.154701  0.000000 )  
               b(3) = (  0.000000 -0.000000  0.821766 )  


     PseudoPot. # 1 for H  read from file:
     /home/cristian/Escritorio/Proyecto_Grafeno/pseudopotenciales/H.pbe-rrkjus.UPF
     MD5 check sum: 7cc9d459525c9a0585f487a71c3c9563
     Pseudo is Ultrasoft, Zval =  1.0
     Generated by new atomic code, or converted to UPF format
     Using radial grid of 1061 points,  2 beta functions with: 
                l(1) =   0
                l(2) =   0
     Q(r) pseudized with 0 coefficients 


     PseudoPot. # 2 for H  read from file:
     /home/cristian/Escritorio/Proyecto_Grafeno/pseudopotenciales/H.pbe-rrkjus.UPF
     MD5 check sum: 7cc9d459525c9a0585f487a71c3c9563
     Pseudo is Ultrasoft, Zval =  1.0
     Generated by new atomic code, or converted to UPF format
     Using radial grid of 1061 points,  2 beta functions with: 
                l(1) =   0
                l(2) =   0
     Q(r) pseudized with 0 coefficients 


     PseudoPot. # 3 for C  read from file:
     /home/cristian/Escritorio/Proyecto_Grafeno/pseudopotenciales/C.pbe-n-rrkjus_psl.1.0.0.UPF
     MD5 check sum: 1fdd950c42eb37d8afe3dd2f8d12311e
     Pseudo is Ultrasoft + core correction, Zval =  4.0
     Generated using "atomic" code by A. Dal Corso v.6.3MaX
     Using radial grid of 1073 points,  4 beta functions with: 
                l(1) =   0
                l(2) =   0
                l(3) =   1
                l(4) =   1
     Q(r) pseudized with 0 coefficients 


     vdW kernel table read from file rVV10_kernel_table
     MD5 check sum: b8e2538accc0c0b3206b45ba4daaba6c

     atomic species   valence    mass     pseudopotential
        H1             1.00     1.00794     H ( 1.00)
        H2             1.00     1.00794     H ( 1.00)
        C              4.00    12.01070     C ( 1.00)

     No symmetry found



   Cartesian axes

     site n.     atom                  positions (alat units)
         1           H1  tau(   1) = (   0.2666667   0.4618802   0.2109279  )
         2           H2  tau(   2) = (   0.2666667   0.4618802   0.2719406  )
         3           C   tau(   3) = (   0.0000000   0.0000000   0.0000000  )
         4           C   tau(   4) = (   0.0000000   0.1154701   0.0000000  )
         5           C   tau(   5) = (  -0.1000000   0.1732051   0.0000000  )
         6           C   tau(   6) = (  -0.1000000   0.2886751   0.0000000  )
         7           C   tau(   7) = (  -0.2000000   0.3464102   0.0000000  )
         8           C   tau(   8) = (  -0.2000000   0.4618802   0.0000000  )
         9           C   tau(   9) = (  -0.3000000   0.5196152   0.0000000  )
        10           C   tau(  10) = (  -0.3000000   0.6350853   0.0000000  )
        11           C   tau(  11) = (  -0.4000000   0.6928203   0.0000000  )
        12           C   tau(  12) = (  -0.4000000   0.8082904   0.0000000  )
        13           C   tau(  13) = (   0.2000000   0.0000000   0.0000000  )
        14           C   tau(  14) = (   0.2000000   0.1154701   0.0000000  )
        15           C   tau(  15) = (   0.1000000   0.1732051   0.0000000  )
        16           C   tau(  16) = (   0.1000000   0.2886751   0.0000000  )
        17           C   tau(  17) = (   0.0000000   0.3464102   0.0000000  )
        18           C   tau(  18) = (   0.0000000   0.4618802   0.0000000  )
        19           C   tau(  19) = (  -0.1000000   0.5196152   0.0000000  )
        20           C   tau(  20) = (  -0.1000000   0.6350853   0.0000000  )
        21           C   tau(  21) = (  -0.2000000   0.6928203   0.0000000  )
        22           C   tau(  22) = (  -0.2000000   0.8082904   0.0000000  )
        23           C   tau(  23) = (   0.4000000   0.0000000   0.0000000  )
        24           C   tau(  24) = (   0.4000000   0.1154701   0.0000000  )
        25           C   tau(  25) = (   0.3000000   0.1732051   0.0000000  )
        26           C   tau(  26) = (   0.3000000   0.2886751   0.0000000  )
        27           C   tau(  27) = (   0.2000000   0.3464102   0.0000000  )
        28           C   tau(  28) = (   0.2000000   0.4618802   0.0000000  )
        29           C   tau(  29) = (   0.1000000   0.5196152   0.0000000  )
        30           C   tau(  30) = (   0.1000000   0.6350853   0.0000000  )
        31           C   tau(  31) = (   0.0000000   0.6928203   0.0000000  )
        32           C   tau(  32) = (   0.0000000   0.8082904   0.0000000  )
        33           C   tau(  33) = (   0.6000000   0.0000000   0.0000000  )
        34           C   tau(  34) = (   0.6000000   0.1154701   0.0000000  )
        35           C   tau(  35) = (   0.5000000   0.1732051   0.0000000  )
        36           C   tau(  36) = (   0.5000000   0.2886751   0.0000000  )
        37           C   tau(  37) = (   0.4000000   0.3464102   0.0000000  )
        38           C   tau(  38) = (   0.4000000   0.4618802   0.0000000  )
        39           C   tau(  39) = (   0.3000000   0.5196152   0.0000000  )
        40           C   tau(  40) = (   0.3000000   0.6350853   0.0000000  )
        41           C   tau(  41) = (   0.2000000   0.6928203   0.0000000  )
        42           C   tau(  42) = (   0.2000000   0.8082904   0.0000000  )
        43           C   tau(  43) = (   0.8000000   0.0000000   0.0000000  )
        44           C   tau(  44) = (   0.8000000   0.1154701   0.0000000  )
        45           C   tau(  45) = (   0.7000000   0.1732051   0.0000000  )
        46           C   tau(  46) = (   0.7000000   0.2886751   0.0000000  )
        47           C   tau(  47) = (   0.6000000   0.3464102   0.0000000  )
        48           C   tau(  48) = (   0.6000000   0.4618802   0.0000000  )
        49           C   tau(  49) = (   0.5000000   0.5196152   0.0000000  )
        50           C   tau(  50) = (   0.5000000   0.6350853   0.0000000  )
        51           C   tau(  51) = (   0.4000000   0.6928203   0.0000000  )
        52           C   tau(  52) = (   0.4000000   0.8082904   0.0000000  )

     number of k points=     4  Marzari-Vanderbilt smearing, width (Ry)=  0.0010
                       cart. coord. in units 2pi/alat
        k(    1) = (   0.0000000   0.0000000   0.0000000), wk =   0.5000000
        k(    2) = (   0.0000000  -0.5773503   0.0000000), wk =   0.5000000
        k(    3) = (   0.5000000  -0.2886751   0.0000000), wk =   0.5000000
        k(    4) = (  -0.5000000  -0.2886751   0.0000000), wk =   0.5000000

     Dense  grid:  2439139 G-vectors     FFT dimensions: ( 180, 180, 200)

     Smooth grid:  1053907 G-vectors     FFT dimensions: ( 125, 125, 160)

     Estimated max dynamical RAM per process >       1.39 GB

     Estimated total dynamical RAM >       6.95 GB

     Check: negative core charge=   -0.000001

     Initial potential from superposition of free atoms

     starting charge  201.80551, renormalised to  202.00000

     negative rho (up, down):  1.021E-03 0.000E+00


---------------------------------------------------------------------------------
Carrying out rVV10 run using the following parameters:
Nqs =      20    Nr_points =    1024   r_max =   100.000
b_value =  6.30000    beta =  0.00901
     q_mesh =  0.00010000  0.00030000  0.00058939  0.00100810
               0.00161396  0.00249058  0.00375900  0.00559430
               0.00824984  0.01209221  0.01765183  0.02569619
               0.03733578  0.05417739  0.07854596  0.11380545
               0.16482331  0.23864234  0.34545298  0.50000000

Gradients computed in Reciprocal space

---------------------------------------------------------------------------------


     Starting wfcs are  202 randomized atomic wfcs

     total cpu time spent up to now is      159.6 secs

     Self-consistent Calculation

     iteration #  1     ecut=    70.00 Ry     beta= 0.70
     Davidson diagonalization with overlap
     ethr =  1.00E-02,  avg # of iterations =  2.0

     negative rho (up, down):  1.113E-03 0.000E+00

     total cpu time spent up to now is      442.6 secs

     total energy              =    -624.72073904 Ry
     Harris-Foulkes estimate   =    -628.27098122 Ry
     estimated scf accuracy    <       5.89104748 Ry

     iteration #  2     ecut=    70.00 Ry     beta= 0.70
     Davidson diagonalization with overlap
     ethr =  2.92E-03,  avg # of iterations =  9.2

     negative rho (up, down):  1.305E-03 0.000E+00

     total cpu time spent up to now is      712.9 secs

     total energy              =    -625.46760746 Ry
     Harris-Foulkes estimate   =    -625.74426724 Ry
     estimated scf accuracy    <       0.40745609 Ry

     iteration #  3     ecut=    70.00 Ry     beta= 0.70
     Davidson diagonalization with overlap
     ethr =  2.02E-04,  avg # of iterations = 11.0

     negative rho (up, down):  1.360E-03 0.000E+00

     total cpu time spent up to now is     1032.4 secs

     total energy              =    -625.43448461 Ry
     Harris-Foulkes estimate   =    -625.88817560 Ry
     estimated scf accuracy    <       1.16383747 Ry

     iteration #  4     ecut=    70.00 Ry     beta= 0.70
     Davidson diagonalization with overlap
     ethr =  2.02E-04,  avg # of iterations =  7.0

     negative rho (up, down):  1.474E-03 0.000E+00

     total cpu time spent up to now is     1290.3 secs

     total energy              =    -625.65588352 Ry
     Harris-Foulkes estimate   =    -625.66634122 Ry
     estimated scf accuracy    <       0.02637761 Ry

     iteration #  5     ecut=    70.00 Ry     beta= 0.70
     Davidson diagonalization with overlap
     ethr =  1.31E-05,  avg # of iterations =  7.8

     negative rho (up, down):  1.657E-03 0.000E+00

     total cpu time spent up to now is     1562.0 secs

     total energy              =    -625.66047378 Ry
     Harris-Foulkes estimate   =    -625.66441799 Ry
     estimated scf accuracy    <       0.00835553 Ry

     iteration #  6     ecut=    70.00 Ry     beta= 0.70
     Davidson diagonalization with overlap
     ethr =  4.14E-06,  avg # of iterations =  6.2

     negative rho (up, down):  1.811E-03 0.000E+00

     total cpu time spent up to now is     1812.2 secs

     total energy              =    -625.66220949 Ry
     Harris-Foulkes estimate   =    -625.66237876 Ry
     estimated scf accuracy    <       0.00028521 Ry

     iteration #  7     ecut=    70.00 Ry     beta= 0.70
     Davidson diagonalization with overlap
     ethr =  1.41E-07,  avg # of iterations =  6.2

     negative rho (up, down):  1.879E-03 0.000E+00

     total cpu time spent up to now is     2067.0 secs

     total energy              =    -625.66228348 Ry
     Harris-Foulkes estimate   =    -625.66231522 Ry
     estimated scf accuracy    <       0.00004681 Ry

     iteration #  8     ecut=    70.00 Ry     beta= 0.70
     Davidson diagonalization with overlap
     ethr =  2.32E-08,  avg # of iterations =  2.2

     negative rho (up, down):  1.887E-03 0.000E+00

     total cpu time spent up to now is     2304.2 secs

     total energy              =    -625.66229338 Ry
     Harris-Foulkes estimate   =    -625.66229738 Ry
     estimated scf accuracy    <       0.00000573 Ry

     iteration #  9     ecut=    70.00 Ry     beta= 0.70
     Davidson diagonalization with overlap
     ethr =  2.84E-09,  avg # of iterations =  2.2

     negative rho (up, down):  1.889E-03 0.000E+00

     total cpu time spent up to now is     2532.8 secs

     total energy              =    -625.66229436 Ry
     Harris-Foulkes estimate   =    -625.66229557 Ry
     estimated scf accuracy    <       0.00000218 Ry

     iteration # 10     ecut=    70.00 Ry     beta= 0.70
     Davidson diagonalization with overlap
     ethr =  1.08E-09,  avg # of iterations =  2.2

     negative rho (up, down):  1.890E-03 0.000E+00

     total cpu time spent up to now is     2743.1 secs

     End of self-consistent calculation

          k = 0.0000 0.0000 0.0000 (131685 PWs)   bands (ev):

   -21.1949 -20.2625 -20.2579 -20.2577 -20.2569 -20.2569 -20.2567 -18.4250
   -18.4228 -18.4228 -18.4219 -18.4219 -18.4217 -17.5320 -17.5304 -17.5301
   -17.5294 -17.5294 -17.5291 -15.3873 -15.3862 -15.3852 -15.3850 -15.3843
   -15.3842 -14.3786 -14.3777 -14.3776 -14.3768 -14.3768 -14.3766 -13.0374
   -13.0368 -13.0367 -13.0363 -13.0362 -13.0361 -10.6769 -10.6765 -10.6760
   -10.6760 -10.6756 -10.6752 -10.5548 -10.5545 -10.5535 -10.5534 -10.5532
   -10.5531  -9.3424  -9.1817  -9.1814  -9.1809  -9.1809  -9.1806  -9.1806
    -8.3927  -8.2090  -8.2090  -8.2077  -8.2076  -8.2075  -7.9348  -7.9344
    -7.9341  -7.9328  -7.9328  -7.9327  -7.8826  -7.8819  -7.8814  -7.8811
    -7.8809  -7.8807  -7.7243  -6.2875  -6.2873  -6.2868  -6.2866  -6.2864
    -6.2859  -6.0801  -6.0792  -6.0768  -6.0766  -6.0763  -6.0590  -5.1828
    -5.1810  -5.1790  -5.1787  -5.1783  -5.1741  -4.8153  -4.8152  -3.1985
    -3.1982  -3.1944  -3.1937  -3.1930  -3.1930  -0.4046  -0.4033  -0.4015
    -0.3990  -0.3986  -0.3979   1.3576   1.4471   1.4525   1.4526   1.4575
     1.4578   1.4579   2.2397   2.4935   2.4942   2.5870   2.5948   2.5980
     2.8008

          k = 0.0000-0.5774 0.0000 (131762 PWs)   bands (ev):

   -20.9608 -20.9586 -20.4921 -20.4906 -19.5649 -19.5628 -19.5625 -19.5621
   -19.1036 -19.1029 -18.1983 -18.1974 -18.1958 -18.1957 -16.8809 -16.8796
   -16.8790 -16.8788 -16.4748 -16.4742 -16.4735 -16.4734 -15.9897 -15.2629
   -15.2626 -14.9225 -14.0587 -14.0581 -14.0573 -14.0570 -13.5868 -13.5863
   -12.6532 -12.6528 -12.6522 -12.6518 -11.8562 -11.8558 -11.6973 -11.6969
   -11.6962 -11.6961 -10.4774 -10.4773 -10.2499 -10.2490 -10.2477 -10.2476
    -9.2058  -9.2054  -9.2053  -9.2051  -9.0812  -9.0436  -8.8339  -8.8337
    -8.8324  -8.8322  -8.5353  -8.4846  -8.3587  -8.3585  -8.3577  -8.3576
    -8.1656  -7.9173  -7.4459  -7.4458  -7.4454  -7.4453  -7.3922  -7.3917
    -7.3904  -7.3162  -7.2686  -7.2680  -7.0614  -7.0609  -6.8665  -6.8470
    -6.2144  -6.2139  -5.8483  -5.8443  -5.8440  -5.8357  -5.7223  -5.7211
    -5.2825  -5.2811  -4.4063  -4.4037  -4.4030  -4.4029  -4.2030  -4.2012
    -4.1992  -4.1987  -4.0539  -2.7200  -2.7186  -0.6842  -0.6825  -0.0315
     0.3494   0.3525   0.3573   0.3577   0.9997   1.0036   1.0047   1.0057
     1.6170   1.7114   2.2233   2.3226   2.5378   2.5670   2.6198   2.6240
     2.6247

          k = 0.5000-0.2887 0.0000 (131762 PWs)   bands (ev):

   -20.9608 -20.9586 -20.4921 -20.4906 -19.5649 -19.5628 -19.5625 -19.5621
   -19.1036 -19.1029 -18.1983 -18.1974 -18.1958 -18.1957 -16.8809 -16.8796
   -16.8790 -16.8788 -16.4748 -16.4742 -16.4735 -16.4734 -15.9897 -15.2629
   -15.2626 -14.9225 -14.0587 -14.0581 -14.0573 -14.0570 -13.5868 -13.5863
   -12.6532 -12.6528 -12.6522 -12.6518 -11.8562 -11.8558 -11.6973 -11.6969
   -11.6962 -11.6961 -10.4774 -10.4773 -10.2499 -10.2490 -10.2477 -10.2477
    -9.2058  -9.2054  -9.2053  -9.2051  -9.0812  -9.0436  -8.8339  -8.8337
    -8.8324  -8.8322  -8.5353  -8.4846  -8.3587  -8.3585  -8.3577  -8.3576
    -8.1656  -7.9173  -7.4459  -7.4458  -7.4454  -7.4453  -7.3922  -7.3917
    -7.3904  -7.3162  -7.2686  -7.2680  -7.0614  -7.0609  -6.8665  -6.8470
    -6.2144  -6.2139  -5.8483  -5.8443  -5.8440  -5.8357  -5.7223  -5.7211
    -5.2825  -5.2811  -4.4063  -4.4037  -4.4030  -4.4029  -4.2030  -4.2012
    -4.1992  -4.1987  -4.0539  -2.7200  -2.7186  -0.6842  -0.6825  -0.0315
     0.3494   0.3525   0.3573   0.3577   0.9997   1.0036   1.0047   1.0057
     1.6170   1.7114   2.2232   2.3226   2.5376   2.5670   2.6198   2.6239
     2.6247

          k =-0.5000-0.2887 0.0000 (131762 PWs)   bands (ev):

   -20.9609 -20.9585 -20.4921 -20.4906 -19.5649 -19.5627 -19.5627 -19.5621
   -19.1036 -19.1029 -18.1986 -18.1973 -18.1957 -18.1957 -16.8802 -16.8801
   -16.8790 -16.8788 -16.4752 -16.4739 -16.4735 -16.4734 -15.9896 -15.2632
   -15.2625 -14.9227 -14.0587 -14.0578 -14.0576 -14.0569 -13.5865 -13.5863
   -12.6537 -12.6525 -12.6522 -12.6518 -11.8562 -11.8559 -11.6969 -11.6968
   -11.6964 -11.6963 -10.4776 -10.4772 -10.2498 -10.2489 -10.2476 -10.2476
    -9.2059  -9.2055  -9.2053  -9.2051  -9.0811  -9.0435  -8.8340  -8.8335
    -8.8324  -8.8323  -8.5359  -8.4846  -8.3592  -8.3581  -8.3580  -8.3574
    -8.1656  -7.9161  -7.4459  -7.4458  -7.4454  -7.4454  -7.3922  -7.3916
    -7.3904  -7.3160  -7.2686  -7.2680  -7.0614  -7.0609  -6.8670  -6.8481
    -6.2145  -6.2139  -5.8473  -5.8442  -5.8440  -5.8355  -5.7225  -5.7210
    -5.2824  -5.2811  -4.4084  -4.4033  -4.4031  -4.4022  -4.2018  -4.2006
    -4.1995  -4.1989  -4.0546  -2.7205  -2.7181  -0.6839  -0.6820  -0.0320
     0.3507   0.3530   0.3564   0.3578   0.9961   1.0040   1.0050   1.0058
     1.6171   1.7114   2.2228   2.3228   2.5377   2.5859   2.6195   2.6227
     2.6242

     the Fermi energy is    -1.6813 ev

!    total energy              =    -625.66229459 Ry
     Harris-Foulkes estimate   =    -625.66229487 Ry
     estimated scf accuracy    <       0.00000015 Ry

     The total energy is the sum of the following terms:

     one-electron contribution =   -3938.24531191 Ry
     hartree contribution      =    2006.00396367 Ry
     xc contribution           =    -235.30528649 Ry
     ewald contribution        =    1541.88434014 Ry
     smearing contrib. (-TS)   =       0.00000000 Ry

     convergence has been achieved in  10 iterations

     Writing output data file gr-12-baricentro.save/

     init_run     :    157.49s CPU    159.06s WALL (       1 calls)
     electrons    :   2561.14s CPU   2583.71s WALL (       1 calls)

     Called by init_run:
     wfcinit      :    115.57s CPU    116.32s WALL (       1 calls)
     potinit      :     21.45s CPU     21.99s WALL (       1 calls)
     hinit0       :     15.17s CPU     15.22s WALL (       1 calls)

     Called by electrons:
     c_bands      :   2133.08s CPU   2144.78s WALL (      10 calls)
     sum_band     :    282.30s CPU    285.92s WALL (      10 calls)
     v_of_rho     :    105.49s CPU    110.81s WALL (      11 calls)
     newd         :     49.74s CPU     52.22s WALL (      11 calls)
     mix_rho      :      2.63s CPU      2.68s WALL (      10 calls)

     Called by c_bands:
     init_us_2    :      5.08s CPU      5.12s WALL (      84 calls)
     cegterg      :   2119.66s CPU   2131.31s WALL (      40 calls)

     Called by sum_band:
     sum_band:bec :      0.03s CPU      0.03s WALL (      40 calls)
     addusdens    :     65.90s CPU     68.34s WALL (      10 calls)

     Called by *egterg:
     h_psi        :   1148.52s CPU   1157.25s WALL (     269 calls)
     s_psi        :    357.36s CPU    357.56s WALL (     269 calls)
     g_psi        :      1.56s CPU      1.56s WALL (     225 calls)
     cdiaghg      :     23.61s CPU     23.62s WALL (     265 calls)

     Called by h_psi:
     h_psi:pot    :   1147.29s CPU   1154.58s WALL (     269 calls)
     h_psi:calbec :    360.07s CPU    360.25s WALL (     269 calls)
     vloc_psi     :    431.31s CPU    438.30s WALL (     269 calls)
     add_vuspsi   :    355.90s CPU    356.03s WALL (     269 calls)

     General routines
     calbec       :    484.32s CPU    484.55s WALL (     309 calls)
     fft          :     61.94s CPU     63.95s WALL (     691 calls)
     ffts         :      0.60s CPU      0.63s WALL (      21 calls)
     fftw         :    442.58s CPU    449.58s WALL (   32878 calls)
     interpolate  :      1.43s CPU      1.47s WALL (      11 calls)

     Parallel routines
     fft_scatt_xy :    106.54s CPU    107.13s WALL (   33590 calls)
     fft_scatt_yz :    156.28s CPU    162.66s WALL (   33590 calls)

     PWSCF        :  45m19.57s CPU  45m44.45s WALL


   This run was terminated on:   3:16:51  20Jun2022            

=------------------------------------------------------------------------------=
   JOB DONE.
=------------------------------------------------------------------------------=
