
     Program PWSCF v.6.4.1 starts on 15Sep2022 at 16: 5:53 

     This program is part of the open-source Quantum ESPRESSO suite
     for quantum simulation of materials; please cite
         "P. Giannozzi et al., J. Phys.:Condens. Matter 21 395502 (2009);
         "P. Giannozzi et al., J. Phys.:Condens. Matter 29 465901 (2017);
          URL http://www.quantum-espresso.org", 
     in publications or presentations arising from this work. More details at
     http://www.quantum-espresso.org/quote

     Parallel version (MPI), running on     6 processors

     MPI processes distributed on     1 nodes
     R & G space division:  proc/nbgrp/npool/nimage =       6
     Reading input from rotate-0.in

     Current dimensions of program PWSCF are:
     Max number of different atomic species (ntypx) = 10
     Max number of k-points (npk) =  40000
     Max angular momentum in pseudopotentials (lmaxx) =  3

     IMPORTANT: XC functional enforced from input :
     Exchange-correlation      = RVV10 ( 1  4 13  4 3 0)
     Any further DFT definition will be discarded
     Please, verify this is what you really want

               file H.pbe-rrkjus.UPF: wavefunction(s)  1S renormalized
               file Cu.pbe-dn-rrkjus_psl.1.0.0.UPF: wavefunction(s)  3D renormalized

     Subspace diagonalization in iterative solution of the eigenvalue problem:
     a serial algorithm will be used


     Parallelization info
     --------------------
     sticks:   dense  smooth     PW     G-vecs:    dense   smooth      PW
     Min        3051    1746    432               270999   117096   14629
     Max        3053    1747    437               271001   117099   14630
     Sum       18313   10477   2611              1626001   702581   87777



     bravais-lattice index     =            4
     lattice parameter (alat)  =      23.2937  a.u.
     unit-cell volume          =    8879.8548 (a.u.)^3
     number of atoms/cell      =           52
     number of atomic types    =            3
     number of electrons       =       209.00
     number of Kohn-Sham states=          126
     kinetic-energy cutoff     =      70.0000  Ry
     charge density cutoff     =     490.0000  Ry
     convergence threshold     =      1.0E-06
     mixing beta               =       0.7000
     number of iterations used =            8  plain     mixing
     Exchange-correlation      = RVV10 ( 1  4 13  4 3 0)

     celldm(1)=  23.293684  celldm(2)=   0.000000  celldm(3)=   0.811261
     celldm(4)=   0.000000  celldm(5)=   0.000000  celldm(6)=   0.000000

     crystal axes: (cart. coord. in units of alat)
               a(1) = (   1.000000   0.000000   0.000000 )  
               a(2) = (  -0.500000   0.866025   0.000000 )  
               a(3) = (   0.000000   0.000000   0.811261 )  

     reciprocal axes: (cart. coord. in units 2 pi/alat)
               b(1) = (  1.000000  0.577350 -0.000000 )  
               b(2) = (  0.000000  1.154701  0.000000 )  
               b(3) = (  0.000000 -0.000000  1.232649 )  


     PseudoPot. # 1 for H  read from file:
     /home/cristian/Escritorio/Proyecto_Grafeno/pseudopotenciales/H.pbe-rrkjus.UPF
     MD5 check sum: 7cc9d459525c9a0585f487a71c3c9563
     Pseudo is Ultrasoft, Zval =  1.0
     Generated by new atomic code, or converted to UPF format
     Using radial grid of 1061 points,  2 beta functions with: 
                l(1) =   0
                l(2) =   0
     Q(r) pseudized with 0 coefficients 


     PseudoPot. # 2 for C  read from file:
     /home/cristian/Escritorio/Proyecto_Grafeno/pseudopotenciales/C.pbe-n-rrkjus_psl.1.0.0.UPF
     MD5 check sum: 1fdd950c42eb37d8afe3dd2f8d12311e
     Pseudo is Ultrasoft + core correction, Zval =  4.0
     Generated using "atomic" code by A. Dal Corso v.6.3MaX
     Using radial grid of 1073 points,  4 beta functions with: 
                l(1) =   0
                l(2) =   0
                l(3) =   1
                l(4) =   1
     Q(r) pseudized with 0 coefficients 


     PseudoPot. # 3 for Cu read from file:
     /home/cristian/Escritorio/Proyecto_Grafeno/pseudopotenciales/Cu.pbe-dn-rrkjus_psl.1.0.0.UPF
     MD5 check sum: ba3d6c84e19846e79d48cdc68ff7152b
     Pseudo is Ultrasoft + core correction, Zval = 11.0
     Generated using "atomic" code by A. Dal Corso v.6.3
     Using radial grid of 1199 points,  6 beta functions with: 
                l(1) =   0
                l(2) =   0
                l(3) =   1
                l(4) =   1
                l(5) =   2
                l(6) =   2
     Q(r) pseudized with 0 coefficients 


     vdW kernel table read from file rVV10_kernel_table
     MD5 check sum: b8e2538accc0c0b3206b45ba4daaba6c

     atomic species   valence    mass     pseudopotential
        H              1.00     1.00794     H ( 1.00)
        C              4.00    12.01070     C ( 1.00)
        Cu            11.00    63.54600     Cu( 1.00)

     Starting magnetic structure 
     atomic species   magnetization
        H            0.500
        C            0.300
        Cu           0.800

     No symmetry found


                                    s                        frac. trans.

      isym =  1     identity                                     

 cryst.   s( 1) = (     1          0          0      )
                  (     0          1          0      )
                  (     0          0          1      )

 cart.    s( 1) = (  1.0000000  0.0000000  0.0000000 )
                  (  0.0000000  1.0000000  0.0000000 )
                  (  0.0000000  0.0000000  1.0000000 )


     point group C_1 (1)    
     there are  1 classes
     the character table:

       E    
A      1.00

     the symmetry operations in each class and the name of the first element:

     E        1
          identity                                               

   Cartesian axes

     site n.     atom                  positions (alat units)
         1           H   tau(   1) = (   0.3305063   0.4041452   0.2433783  )
         2           H   tau(   2) = (   0.2694937   0.4041452   0.2433783  )
         3           C   tau(   3) = (   0.0000000   0.0000000   0.0000000  )
         4           C   tau(   4) = (   0.0000000   0.1154701   0.0000000  )
         5           C   tau(   5) = (  -0.1000000   0.1732051   0.0000000  )
         6           C   tau(   6) = (  -0.1000000   0.2886751   0.0000000  )
         7           C   tau(   7) = (  -0.2000000   0.3464102   0.0000000  )
         8           C   tau(   8) = (  -0.2000000   0.4618802   0.0000000  )
         9           C   tau(   9) = (  -0.3000000   0.5196152   0.0000000  )
        10           C   tau(  10) = (  -0.3000000   0.6350853   0.0000000  )
        11           C   tau(  11) = (  -0.4000000   0.6928203   0.0000000  )
        12           C   tau(  12) = (  -0.4000000   0.8082904   0.0000000  )
        13           C   tau(  13) = (   0.2000000   0.0000000   0.0000000  )
        14           C   tau(  14) = (   0.2000000   0.1154701   0.0000000  )
        15           C   tau(  15) = (   0.1000000   0.1732051   0.0000000  )
        16           C   tau(  16) = (   0.1000000   0.2886751   0.0000000  )
        17           C   tau(  17) = (   0.0000000   0.3464102   0.0000000  )
        18           C   tau(  18) = (   0.0000000   0.4618802   0.0000000  )
        19           C   tau(  19) = (  -0.1000000   0.5196152   0.0000000  )
        20           C   tau(  20) = (  -0.1000000   0.6350853   0.0000000  )
        21           C   tau(  21) = (  -0.2000000   0.6928203   0.0000000  )
        22           C   tau(  22) = (  -0.2000000   0.8082904   0.0000000  )
        23           C   tau(  23) = (   0.4000000   0.0000000   0.0000000  )
        24           C   tau(  24) = (   0.4000000   0.1154701   0.0000000  )
        25           C   tau(  25) = (   0.3000000   0.1732051   0.0000000  )
        26           C   tau(  26) = (   0.3000000   0.2886751   0.0000000  )
        27           C   tau(  27) = (   0.2000000   0.3464102   0.0000000  )
        28           Cu  tau(  28) = (   0.2000000   0.4618802   0.0000000  )
        29           C   tau(  29) = (   0.1000000   0.5196152   0.0000000  )
        30           C   tau(  30) = (   0.1000000   0.6350853   0.0000000  )
        31           C   tau(  31) = (   0.0000000   0.6928203   0.0000000  )
        32           C   tau(  32) = (   0.0000000   0.8082904   0.0000000  )
        33           C   tau(  33) = (   0.6000000   0.0000000   0.0000000  )
        34           C   tau(  34) = (   0.6000000   0.1154701   0.0000000  )
        35           C   tau(  35) = (   0.5000000   0.1732051   0.0000000  )
        36           C   tau(  36) = (   0.5000000   0.2886751   0.0000000  )
        37           C   tau(  37) = (   0.4000000   0.3464102   0.0000000  )
        38           C   tau(  38) = (   0.4000000   0.4618802   0.0000000  )
        39           C   tau(  39) = (   0.3000000   0.5196152   0.0000000  )
        40           C   tau(  40) = (   0.3000000   0.6350853   0.0000000  )
        41           C   tau(  41) = (   0.2000000   0.6928203   0.0000000  )
        42           C   tau(  42) = (   0.2000000   0.8082904   0.0000000  )
        43           C   tau(  43) = (   0.8000000   0.0000000   0.0000000  )
        44           C   tau(  44) = (   0.8000000   0.1154701   0.0000000  )
        45           C   tau(  45) = (   0.7000000   0.1732051   0.0000000  )
        46           C   tau(  46) = (   0.7000000   0.2886751   0.0000000  )
        47           C   tau(  47) = (   0.6000000   0.3464102   0.0000000  )
        48           C   tau(  48) = (   0.6000000   0.4618802   0.0000000  )
        49           C   tau(  49) = (   0.5000000   0.5196152   0.0000000  )
        50           C   tau(  50) = (   0.5000000   0.6350853   0.0000000  )
        51           C   tau(  51) = (   0.4000000   0.6928203   0.0000000  )
        52           C   tau(  52) = (   0.4000000   0.8082904   0.0000000  )

   Crystallographic axes

     site n.     atom                  positions (cryst. coord.)
         1           H   tau(   1) = (  0.5638397  0.4666667  0.3000000  )
         2           H   tau(   2) = (  0.5028270  0.4666667  0.3000000  )
         3           C   tau(   3) = (  0.0000000  0.0000000  0.0000000  )
         4           C   tau(   4) = (  0.0666667  0.1333333  0.0000000  )
         5           C   tau(   5) = (  0.0000000  0.2000000  0.0000000  )
         6           C   tau(   6) = (  0.0666667  0.3333333  0.0000000  )
         7           C   tau(   7) = (  0.0000000  0.4000000  0.0000000  )
         8           C   tau(   8) = (  0.0666667  0.5333333  0.0000000  )
         9           C   tau(   9) = (  0.0000000  0.6000000  0.0000000  )
        10           C   tau(  10) = (  0.0666667  0.7333333  0.0000000  )
        11           C   tau(  11) = (  0.0000000  0.8000000  0.0000000  )
        12           C   tau(  12) = (  0.0666667  0.9333333  0.0000000  )
        13           C   tau(  13) = (  0.2000000  0.0000000  0.0000000  )
        14           C   tau(  14) = (  0.2666667  0.1333333  0.0000000  )
        15           C   tau(  15) = (  0.2000000  0.2000000  0.0000000  )
        16           C   tau(  16) = (  0.2666667  0.3333333  0.0000000  )
        17           C   tau(  17) = (  0.2000000  0.4000000  0.0000000  )
        18           C   tau(  18) = (  0.2666667  0.5333333  0.0000000  )
        19           C   tau(  19) = (  0.2000000  0.6000000  0.0000000  )
        20           C   tau(  20) = (  0.2666667  0.7333333  0.0000000  )
        21           C   tau(  21) = (  0.2000000  0.8000000  0.0000000  )
        22           C   tau(  22) = (  0.2666667  0.9333333  0.0000000  )
        23           C   tau(  23) = (  0.4000000  0.0000000  0.0000000  )
        24           C   tau(  24) = (  0.4666667  0.1333333  0.0000000  )
        25           C   tau(  25) = (  0.4000000  0.2000000  0.0000000  )
        26           C   tau(  26) = (  0.4666667  0.3333333  0.0000000  )
        27           C   tau(  27) = (  0.4000000  0.4000000  0.0000000  )
        28           Cu  tau(  28) = (  0.4666667  0.5333333  0.0000000  )
        29           C   tau(  29) = (  0.4000000  0.6000000  0.0000000  )
        30           C   tau(  30) = (  0.4666667  0.7333333  0.0000000  )
        31           C   tau(  31) = (  0.4000000  0.8000000  0.0000000  )
        32           C   tau(  32) = (  0.4666667  0.9333333  0.0000000  )
        33           C   tau(  33) = (  0.6000000  0.0000000  0.0000000  )
        34           C   tau(  34) = (  0.6666667  0.1333333  0.0000000  )
        35           C   tau(  35) = (  0.6000000  0.2000000  0.0000000  )
        36           C   tau(  36) = (  0.6666667  0.3333333  0.0000000  )
        37           C   tau(  37) = (  0.6000000  0.4000000  0.0000000  )
        38           C   tau(  38) = (  0.6666667  0.5333333  0.0000000  )
        39           C   tau(  39) = (  0.6000000  0.6000000  0.0000000  )
        40           C   tau(  40) = (  0.6666667  0.7333333  0.0000000  )
        41           C   tau(  41) = (  0.6000000  0.8000000  0.0000000  )
        42           C   tau(  42) = (  0.6666667  0.9333333  0.0000000  )
        43           C   tau(  43) = (  0.8000000  0.0000000  0.0000000  )
        44           C   tau(  44) = (  0.8666667  0.1333333  0.0000000  )
        45           C   tau(  45) = (  0.8000000  0.2000000  0.0000000  )
        46           C   tau(  46) = (  0.8666667  0.3333333  0.0000000  )
        47           C   tau(  47) = (  0.8000000  0.4000000  0.0000000  )
        48           C   tau(  48) = (  0.8666667  0.5333333  0.0000000  )
        49           C   tau(  49) = (  0.8000000  0.6000000  0.0000000  )
        50           C   tau(  50) = (  0.8666667  0.7333333  0.0000000  )
        51           C   tau(  51) = (  0.8000000  0.8000000  0.0000000  )
        52           C   tau(  52) = (  0.8666667  0.9333333  0.0000000  )

     number of k points=     1  Marzari-Vanderbilt smearing, width (Ry)=  0.0010
                       cart. coord. in units 2pi/alat
        k(    1) = (   0.0000000   0.0000000   0.0000000), wk =   1.0000000

                       cryst. coord.
        k(    1) = (   0.0000000   0.0000000   0.0000000), wk =   1.0000000

     Dense  grid:  1626001 G-vectors     FFT dimensions: ( 180, 180, 135)

     Smooth grid:   702581 G-vectors     FFT dimensions: ( 125, 125, 108)

     Dynamical RAM for                 wfc:      28.14 MB

     Dynamical RAM for     wfc (w. buffer):      84.42 MB

     Dynamical RAM for           str. fact:      12.41 MB

     Dynamical RAM for           local pot:       0.00 MB

     Dynamical RAM for          nlocal pot:      92.46 MB

     Dynamical RAM for                qrad:      19.73 MB

     Dynamical RAM for          rho,v,vnew:      58.92 MB

     Dynamical RAM for               rhoin:      19.64 MB

     Dynamical RAM for            rho*nmix:     132.32 MB

     Dynamical RAM for           G-vectors:      16.40 MB

     Dynamical RAM for          h,s,v(r/c):      11.63 MB

     Dynamical RAM for          <psi|beta>:       0.80 MB

     Dynamical RAM for                 psi:     112.56 MB

     Dynamical RAM for                hpsi:     112.56 MB

     Dynamical RAM for                spsi:     112.56 MB

     Dynamical RAM for      wfcinit/wfcrot:      93.45 MB

     Dynamical RAM for           addusdens:     975.89 MB

     Estimated static dynamical RAM per process >     486.96 MB

     Estimated max dynamical RAM per process >       1.43 GB

     Estimated total dynamical RAM >       8.57 GB
     Generating pointlists ...
     new r_m :   0.0252 (alat units)  0.5862 (a.u.) for type    1
     new r_m :   0.0476 (alat units)  1.1095 (a.u.) for type    2
     new r_m :   0.0476 (alat units)  1.1095 (a.u.) for type    3

     Check: negative core charge=   -0.000002

     Initial potential from superposition of free atoms

     starting charge  208.80532, renormalised to  209.00000

     negative rho (up, down):  6.304E-05 1.041E-02


---------------------------------------------------------------------------------
Carrying out rVV10 run using the following parameters:
Nqs =      20    Nr_points =    1024   r_max =   100.000
b_value =  6.30000    beta =  0.00901
     q_mesh =  0.00010000  0.00030000  0.00058939  0.00100810
               0.00161396  0.00249058  0.00375900  0.00559430
               0.00824984  0.01209221  0.01765183  0.02569619
               0.03733578  0.05417739  0.07854596  0.11380545
               0.16482331  0.23864234  0.34545298  0.50000000

Gradients computed in Reciprocal space

---------------------------------------------------------------------------------


     Starting wfcs are  207 randomized atomic wfcs

     total cpu time spent up to now is       85.2 secs

     Self-consistent Calculation

     iteration #  1     ecut=    70.00 Ry     beta= 0.70
     Davidson diagonalization with overlap
     ethr =  1.00E-02,  avg # of iterations =  4.5

     negative rho (up, down):  1.455E-04 1.084E-02

     total cpu time spent up to now is      244.3 secs

     total energy              =    -727.37298233 Ry
     Harris-Foulkes estimate   =    -734.89882414 Ry
     estimated scf accuracy    <      14.25200781 Ry

     total magnetization       =     7.00 Bohr mag/cell
     absolute magnetization    =     7.39 Bohr mag/cell

     iteration #  2     ecut=    70.00 Ry     beta= 0.70
     Davidson diagonalization with overlap
     ethr =  6.82E-03,  avg # of iterations =  4.5

     negative rho (up, down):  1.580E-04 9.816E-03

     total cpu time spent up to now is      396.1 secs

     total energy              =    -728.32132516 Ry
     Harris-Foulkes estimate   =    -744.83235059 Ry
     estimated scf accuracy    <      43.12930265 Ry

     total magnetization       =     3.00 Bohr mag/cell
     absolute magnetization    =     3.27 Bohr mag/cell

     iteration #  3     ecut=    70.00 Ry     beta= 0.70
     Davidson diagonalization with overlap
     ethr =  6.82E-03,  avg # of iterations =  4.0

     negative rho (up, down):  1.792E-04 7.535E-03

     total cpu time spent up to now is      527.0 secs

     total energy              =    -732.25460888 Ry
     Harris-Foulkes estimate   =    -736.13791598 Ry
     estimated scf accuracy    <      10.76593741 Ry

     total magnetization       =     1.24 Bohr mag/cell
     absolute magnetization    =     1.72 Bohr mag/cell

     iteration #  4     ecut=    70.00 Ry     beta= 0.70
     Davidson diagonalization with overlap
     ethr =  5.15E-03,  avg # of iterations =  3.0

     negative rho (up, down):  2.195E-04 7.573E-03

     total cpu time spent up to now is      639.8 secs

     total energy              =    -733.72297152 Ry
     Harris-Foulkes estimate   =    -735.03193248 Ry
     estimated scf accuracy    <       5.60703776 Ry

     total magnetization       =     3.00 Bohr mag/cell
     absolute magnetization    =     3.15 Bohr mag/cell

     iteration #  5     ecut=    70.00 Ry     beta= 0.70
     Davidson diagonalization with overlap
     ethr =  2.68E-03,  avg # of iterations =  3.0

     negative rho (up, down):  2.582E-04 1.057E-02

     total cpu time spent up to now is      737.9 secs

     total energy              =    -734.33110486 Ry
     Harris-Foulkes estimate   =    -735.13333324 Ry
     estimated scf accuracy    <       3.88035514 Ry

     total magnetization       =     1.00 Bohr mag/cell
     absolute magnetization    =     1.45 Bohr mag/cell

     iteration #  6     ecut=    70.00 Ry     beta= 0.70
     Davidson diagonalization with overlap
     ethr =  1.86E-03,  avg # of iterations =  2.0

     negative rho (up, down):  3.299E-04 1.520E-02

     total cpu time spent up to now is      834.5 secs

     total energy              =    -734.67354970 Ry
     Harris-Foulkes estimate   =    -734.79330820 Ry
     estimated scf accuracy    <       0.33257447 Ry

     total magnetization       =     1.00 Bohr mag/cell
     absolute magnetization    =     1.35 Bohr mag/cell

     iteration #  7     ecut=    70.00 Ry     beta= 0.70
     Davidson diagonalization with overlap
     ethr =  1.59E-04,  avg # of iterations =  6.5

     negative rho (up, down):  4.634E-04 1.221E-02

     total cpu time spent up to now is      950.8 secs

     total energy              =    -734.72682588 Ry
     Harris-Foulkes estimate   =    -734.80080679 Ry
     estimated scf accuracy    <       0.26425790 Ry

     total magnetization       =     1.00 Bohr mag/cell
     absolute magnetization    =     1.24 Bohr mag/cell

     iteration #  8     ecut=    70.00 Ry     beta= 0.70
     Davidson diagonalization with overlap
     ethr =  1.26E-04,  avg # of iterations =  3.0

     negative rho (up, down):  5.563E-04 5.861E-03

     total cpu time spent up to now is     1050.4 secs

     total energy              =    -734.75124285 Ry
     Harris-Foulkes estimate   =    -734.76917694 Ry
     estimated scf accuracy    <       0.06478744 Ry

     total magnetization       =     1.00 Bohr mag/cell
     absolute magnetization    =     1.19 Bohr mag/cell

     iteration #  9     ecut=    70.00 Ry     beta= 0.70
     Davidson diagonalization with overlap
     ethr =  3.10E-05,  avg # of iterations =  3.0

     negative rho (up, down):  6.133E-04 3.009E-03

     total cpu time spent up to now is     1150.9 secs

     total energy              =    -734.75956741 Ry
     Harris-Foulkes estimate   =    -734.76206491 Ry
     estimated scf accuracy    <       0.03698687 Ry

     total magnetization       =     1.00 Bohr mag/cell
     absolute magnetization    =     1.16 Bohr mag/cell

     iteration # 10     ecut=    70.00 Ry     beta= 0.70
     Davidson diagonalization with overlap
     ethr =  1.77E-05,  avg # of iterations =  1.0

     negative rho (up, down):  6.403E-04 2.479E-03

     total cpu time spent up to now is     1246.0 secs

     total energy              =    -734.76045420 Ry
     Harris-Foulkes estimate   =    -734.76122701 Ry
     estimated scf accuracy    <       0.00428343 Ry

     total magnetization       =     1.00 Bohr mag/cell
     absolute magnetization    =     1.13 Bohr mag/cell

     iteration # 11     ecut=    70.00 Ry     beta= 0.70
     Davidson diagonalization with overlap
     ethr =  2.05E-06,  avg # of iterations =  4.0

     negative rho (up, down):  6.452E-04 3.712E-03

     total cpu time spent up to now is     1353.7 secs

     total energy              =    -734.76034914 Ry
     Harris-Foulkes estimate   =    -734.76198548 Ry
     estimated scf accuracy    <       0.02345565 Ry

     total magnetization       =     1.00 Bohr mag/cell
     absolute magnetization    =     1.12 Bohr mag/cell

     iteration # 12     ecut=    70.00 Ry     beta= 0.70
     Davidson diagonalization with overlap
     ethr =  2.05E-06,  avg # of iterations =  2.0

     negative rho (up, down):  6.458E-04 2.436E-03

     total cpu time spent up to now is     1445.3 secs

     total energy              =    -734.76097861 Ry
     Harris-Foulkes estimate   =    -734.76130467 Ry
     estimated scf accuracy    <       0.00493818 Ry

     total magnetization       =     1.00 Bohr mag/cell
     absolute magnetization    =     1.10 Bohr mag/cell

     iteration # 13     ecut=    70.00 Ry     beta= 0.70
     Davidson diagonalization with overlap
     ethr =  2.05E-06,  avg # of iterations =  1.0

     negative rho (up, down):  6.407E-04 2.005E-03

     total cpu time spent up to now is     1536.4 secs

     total energy              =    -734.76115729 Ry
     Harris-Foulkes estimate   =    -734.76119398 Ry
     estimated scf accuracy    <       0.00042570 Ry

     total magnetization       =     1.00 Bohr mag/cell
     absolute magnetization    =     1.09 Bohr mag/cell

     iteration # 14     ecut=    70.00 Ry     beta= 0.70
     Davidson diagonalization with overlap
     ethr =  2.04E-07,  avg # of iterations =  2.0

     negative rho (up, down):  6.324E-04 1.591E-03

     total cpu time spent up to now is     1628.8 secs

     total energy              =    -734.76120598 Ry
     Harris-Foulkes estimate   =    -734.76120270 Ry
     estimated scf accuracy    <       0.00015732 Ry

     total magnetization       =     1.00 Bohr mag/cell
     absolute magnetization    =     1.08 Bohr mag/cell

     iteration # 15     ecut=    70.00 Ry     beta= 0.70
     Davidson diagonalization with overlap
     ethr =  7.53E-08,  avg # of iterations =  1.5

     negative rho (up, down):  6.317E-04 1.601E-03

     total cpu time spent up to now is     1720.0 secs

     total energy              =    -734.76120792 Ry
     Harris-Foulkes estimate   =    -734.76121363 Ry
     estimated scf accuracy    <       0.00029420 Ry

     total magnetization       =     1.00 Bohr mag/cell
     absolute magnetization    =     1.08 Bohr mag/cell

     iteration # 16     ecut=    70.00 Ry     beta= 0.70
     Davidson diagonalization with overlap
     ethr =  7.53E-08,  avg # of iterations =  1.0

     negative rho (up, down):  6.296E-04 1.581E-03

     total cpu time spent up to now is     1813.1 secs

     total energy              =    -734.76121033 Ry
     Harris-Foulkes estimate   =    -734.76121146 Ry
     estimated scf accuracy    <       0.00005501 Ry

     total magnetization       =     1.00 Bohr mag/cell
     absolute magnetization    =     1.07 Bohr mag/cell

     iteration # 17     ecut=    70.00 Ry     beta= 0.70
     Davidson diagonalization with overlap
     ethr =  2.63E-08,  avg # of iterations =  1.5

     negative rho (up, down):  6.288E-04 1.576E-03

     total cpu time spent up to now is     1907.6 secs

     total energy              =    -734.76121246 Ry
     Harris-Foulkes estimate   =    -734.76121312 Ry
     estimated scf accuracy    <       0.00000324 Ry

     total magnetization       =     1.00 Bohr mag/cell
     absolute magnetization    =     1.07 Bohr mag/cell

     iteration # 18     ecut=    70.00 Ry     beta= 0.70
     Davidson diagonalization with overlap
     ethr =  1.55E-09,  avg # of iterations =  3.0

     negative rho (up, down):  6.279E-04 1.589E-03

     total cpu time spent up to now is     2020.2 secs

     total energy              =    -734.76121424 Ry
     Harris-Foulkes estimate   =    -734.76121384 Ry
     estimated scf accuracy    <       0.00001711 Ry

     total magnetization       =     1.00 Bohr mag/cell
     absolute magnetization    =     1.07 Bohr mag/cell

     iteration # 19     ecut=    70.00 Ry     beta= 0.70
     Davidson diagonalization with overlap
     ethr =  1.55E-09,  avg # of iterations =  2.0

     negative rho (up, down):  6.281E-04 1.585E-03

     total cpu time spent up to now is     2118.8 secs

     total energy              =    -734.76121472 Ry
     Harris-Foulkes estimate   =    -734.76121468 Ry
     estimated scf accuracy    <       0.00002374 Ry

     total magnetization       =     1.00 Bohr mag/cell
     absolute magnetization    =     1.07 Bohr mag/cell

     iteration # 20     ecut=    70.00 Ry     beta= 0.70
     Davidson diagonalization with overlap
     ethr =  1.55E-09,  avg # of iterations =  2.0

     negative rho (up, down):  6.279E-04 1.587E-03

     total cpu time spent up to now is     2213.8 secs

     total energy              =    -734.76121469 Ry
     Harris-Foulkes estimate   =    -734.76121494 Ry
     estimated scf accuracy    <       0.00003182 Ry

     total magnetization       =     1.00 Bohr mag/cell
     absolute magnetization    =     1.07 Bohr mag/cell

     iteration # 21     ecut=    70.00 Ry     beta= 0.70
     Davidson diagonalization with overlap
     ethr =  1.55E-09,  avg # of iterations =  1.5

     negative rho (up, down):  6.278E-04 1.583E-03

     total cpu time spent up to now is     2309.7 secs

     total energy              =    -734.76121467 Ry
     Harris-Foulkes estimate   =    -734.76121493 Ry
     estimated scf accuracy    <       0.00001654 Ry

     total magnetization       =     1.00 Bohr mag/cell
     absolute magnetization    =     1.06 Bohr mag/cell

     iteration # 22     ecut=    70.00 Ry     beta= 0.70
     Davidson diagonalization with overlap
     ethr =  1.55E-09,  avg # of iterations =  2.0

     negative rho (up, down):  6.278E-04 1.586E-03

     total cpu time spent up to now is     2405.7 secs

     total energy              =    -734.76121499 Ry
     Harris-Foulkes estimate   =    -734.76121498 Ry
     estimated scf accuracy    <       0.00000593 Ry

     total magnetization       =     1.00 Bohr mag/cell
     absolute magnetization    =     1.06 Bohr mag/cell

     iteration # 23     ecut=    70.00 Ry     beta= 0.70
     Davidson diagonalization with overlap
     ethr =  1.55E-09,  avg # of iterations =  1.0

     negative rho (up, down):  6.280E-04 1.577E-03

     total cpu time spent up to now is     2496.8 secs

     total energy              =    -734.76121490 Ry
     Harris-Foulkes estimate   =    -734.76121505 Ry
     estimated scf accuracy    <       0.00000775 Ry

     total magnetization       =     1.00 Bohr mag/cell
     absolute magnetization    =     1.06 Bohr mag/cell

     iteration # 24     ecut=    70.00 Ry     beta= 0.70
     Davidson diagonalization with overlap
     ethr =  1.55E-09,  avg # of iterations =  2.0

     negative rho (up, down):  6.281E-04 1.575E-03

     total cpu time spent up to now is     2590.8 secs

     total energy              =    -734.76121499 Ry
     Harris-Foulkes estimate   =    -734.76121510 Ry
     estimated scf accuracy    <       0.00000475 Ry

     total magnetization       =     1.00 Bohr mag/cell
     absolute magnetization    =     1.06 Bohr mag/cell

     iteration # 25     ecut=    70.00 Ry     beta= 0.70
     Davidson diagonalization with overlap
     ethr =  1.55E-09,  avg # of iterations =  1.5

     negative rho (up, down):  6.281E-04 1.573E-03

     total cpu time spent up to now is     2685.8 secs

     total energy              =    -734.76121501 Ry
     Harris-Foulkes estimate   =    -734.76121512 Ry
     estimated scf accuracy    <       0.00000207 Ry

     total magnetization       =     1.00 Bohr mag/cell
     absolute magnetization    =     1.06 Bohr mag/cell

     iteration # 26     ecut=    70.00 Ry     beta= 0.70
     Davidson diagonalization with overlap
     ethr =  9.92E-10,  avg # of iterations =  1.5

     negative rho (up, down):  6.281E-04 1.575E-03

     Magnetic moment per site:
     atom:    1    charge:    0.2106    magn:   -0.0000    constr:    0.0000
     atom:    2    charge:    0.2107    magn:    0.0000    constr:    0.0000
     atom:    3    charge:    1.7158    magn:    0.0017    constr:    0.0000
     atom:    4    charge:    1.7153    magn:    0.0018    constr:    0.0000
     atom:    5    charge:    1.7170    magn:    0.0000    constr:    0.0000
     atom:    6    charge:    1.7146    magn:   -0.0001    constr:    0.0000
     atom:    7    charge:    1.7170    magn:    0.0000    constr:    0.0000
     atom:    8    charge:    1.7153    magn:    0.0017    constr:    0.0000
     atom:    9    charge:    1.7158    magn:    0.0016    constr:    0.0000
     atom:   10    charge:    1.7171    magn:   -0.0009    constr:    0.0000
     atom:   11    charge:    1.7160    magn:    0.0005    constr:    0.0000
     atom:   12    charge:    1.7171    magn:   -0.0009    constr:    0.0000
     atom:   13    charge:    1.7160    magn:    0.0006    constr:    0.0000
     atom:   14    charge:    1.7169    magn:   -0.0010    constr:    0.0000
     atom:   15    charge:    1.7130    magn:    0.0075    constr:    0.0000
     atom:   16    charge:    1.7108    magn:    0.0134    constr:    0.0000
     atom:   17    charge:    1.7214    magn:    0.0030    constr:    0.0000
     atom:   18    charge:    1.7108    magn:    0.0132    constr:    0.0000
     atom:   19    charge:    1.7129    magn:    0.0069    constr:    0.0000
     atom:   20    charge:    1.7169    magn:   -0.0009    constr:    0.0000
     atom:   21    charge:    1.7160    magn:    0.0005    constr:    0.0000
     atom:   22    charge:    1.7171    magn:   -0.0009    constr:    0.0000
     atom:   23    charge:    1.7158    magn:    0.0016    constr:    0.0000
     atom:   24    charge:    1.7153    magn:    0.0017    constr:    0.0000
     atom:   25    charge:    1.7130    magn:    0.0073    constr:    0.0000
     atom:   26    charge:    1.7106    magn:    0.0127    constr:    0.0000
     atom:   27    charge:    1.8180    magn:    0.0817    constr:    0.0000
     atom:   28    charge:    7.0284    magn:    0.1548    constr:    0.0000
     atom:   29    charge:    1.8167    magn:    0.0767    constr:    0.0000
     atom:   30    charge:    1.7110    magn:    0.0135    constr:    0.0000
     atom:   31    charge:    1.7130    magn:    0.0071    constr:    0.0000
     atom:   32    charge:    1.7153    magn:    0.0017    constr:    0.0000
     atom:   33    charge:    1.7170    magn:    0.0000    constr:    0.0000
     atom:   34    charge:    1.7153    magn:    0.0000    constr:    0.0000
     atom:   35    charge:    1.7170    magn:    0.0000    constr:    0.0000
     atom:   36    charge:    1.7146    magn:   -0.0001    constr:    0.0000
     atom:   37    charge:    1.7212    magn:    0.0032    constr:    0.0000
     atom:   38    charge:    1.7106    magn:    0.0126    constr:    0.0000
     atom:   39    charge:    1.8171    magn:    0.0803    constr:    0.0000
     atom:   40    charge:    1.7108    magn:    0.0136    constr:    0.0000
     atom:   41    charge:    1.7213    magn:    0.0029    constr:    0.0000
     atom:   42    charge:    1.7146    magn:   -0.0001    constr:    0.0000
     atom:   43    charge:    1.7170    magn:    0.0000    constr:    0.0000
     atom:   44    charge:    1.7153    magn:    0.0000    constr:    0.0000
     atom:   45    charge:    1.7211    magn:   -0.0007    constr:    0.0000
     atom:   46    charge:    1.7153    magn:   -0.0000    constr:    0.0000
     atom:   47    charge:    1.7170    magn:    0.0000    constr:    0.0000
     atom:   48    charge:    1.7153    magn:    0.0017    constr:    0.0000
     atom:   49    charge:    1.7129    magn:    0.0071    constr:    0.0000
     atom:   50    charge:    1.7169    magn:   -0.0010    constr:    0.0000
     atom:   51    charge:    1.7130    magn:    0.0074    constr:    0.0000
     atom:   52    charge:    1.7153    magn:    0.0018    constr:    0.0000

     total cpu time spent up to now is     2780.1 secs

     End of self-consistent calculation

 ------ SPIN UP ------------


          k = 0.0000 0.0000 0.0000 ( 87777 PWs)   bands (ev):

   -19.8408 -18.9994 -18.9965 -18.9047 -18.9038 -18.8426 -18.7643 -17.1694
   -17.1681 -17.1320 -17.0881 -17.0872 -16.8099 -16.3285 -16.3278 -16.1833
   -16.1827 -16.1610 -15.7686 -14.4243 -14.4234 -14.1292 -14.0350 -14.0345
   -13.5771 -13.1668 -13.1667 -13.0802 -12.9377 -12.9370 -12.6319 -12.3159
   -12.3155 -11.7145 -11.6085 -11.6084 -11.1864 -10.9373 -10.9363  -9.5235
    -9.3642  -9.3639  -9.2436  -9.2339  -9.2338  -9.2246  -9.1096  -9.1027
    -9.0607  -9.0604  -8.9595  -8.7174  -8.7168  -7.9676  -7.8964  -7.8396
    -7.6639  -7.6631  -7.5349  -7.5343  -6.9736  -6.8809  -6.8430  -6.8356
    -6.8171  -6.7807  -6.7165  -6.7135  -6.6185  -6.6180  -6.5748  -6.5686
    -6.5677  -6.5224  -6.4294  -6.3984  -6.3969  -5.6136  -5.6133  -5.0285
    -4.9991  -4.9571  -4.8858  -4.8856  -4.7628  -4.7258  -4.7226  -4.5411
    -4.5375  -4.4648  -3.8527  -3.8501  -3.8188  -3.8182  -3.7833  -3.6394
    -3.6369  -3.4044  -1.8833  -1.8277  -1.8271  -1.7341  -1.7324  -1.2246
    -0.8344  -0.8337   0.9108   0.9468   0.9476   1.0944   1.0953   1.4967
     2.4906   2.7935   2.7938   2.8381   2.9315   2.9318   3.3677   3.4510
     3.6084   3.7223   3.7278   3.7486   3.9179   4.2498

     occupation numbers 
     1.0000   1.0000   1.0000   1.0000   1.0000   1.0000   1.0000   1.0000
     1.0000   1.0000   1.0000   1.0000   1.0000   1.0000   1.0000   1.0000
     1.0000   1.0000   1.0000   1.0000   1.0000   1.0000   1.0000   1.0000
     1.0000   1.0000   1.0000   1.0000   1.0000   1.0000   1.0000   1.0000
     1.0000   1.0000   1.0000   1.0000   1.0000   1.0000   1.0000   1.0000
     1.0000   1.0000   1.0000   1.0000   1.0000   1.0000   1.0000   1.0000
     1.0000   1.0000   1.0000   1.0000   1.0000   1.0000   1.0000   1.0000
     1.0000   1.0000   1.0000   1.0000   1.0000   1.0000   1.0000   1.0000
     1.0000   1.0000   1.0000   1.0000   1.0000   1.0000   1.0000   1.0000
     1.0000   1.0000   1.0000   1.0000   1.0000   1.0000   1.0000   1.0000
     1.0000   1.0000   1.0000   1.0000   1.0000   1.0000   1.0000   1.0000
     1.0000   1.0000   1.0000   1.0000   1.0000   1.0000   1.0000   1.0000
     1.0000   1.0000   1.0000   1.0000   1.0000   1.0000   1.0000   1.0000
     0.5176   0.4824   0.0000   0.0000   0.0000   0.0000   0.0000   0.0000
     0.0000   0.0000   0.0000   0.0000   0.0000   0.0000   0.0000   0.0000
     0.0000   0.0000   0.0000   0.0000   0.0000   0.0000

 ------ SPIN DOWN ----------


          k = 0.0000 0.0000 0.0000 ( 87777 PWs)   bands (ev):

   -19.8159 -18.9673 -18.9638 -18.8979 -18.8969 -18.8398 -18.6887 -17.1299
   -17.1289 -17.1161 -17.0668 -17.0648 -16.7765 -16.2912 -16.2904 -16.1620
   -16.1605 -16.1541 -15.6929 -14.3344 -14.3333 -14.1050 -14.0269 -14.0264
   -13.5348 -13.1413 -13.1413 -13.0672 -12.9016 -12.8998 -12.5672 -12.2054
   -12.2039 -11.6948 -11.5744 -11.5732 -11.0811 -10.8069 -10.8058  -9.4827
    -9.3447  -9.3444  -9.2359  -9.2251  -9.2251  -9.2123  -9.0044  -9.0039
    -8.9400  -8.9290  -8.8345  -8.6765  -8.6747  -7.9569  -7.8722  -7.8177
    -7.6149  -7.6143  -7.5175  -7.5164  -6.9383  -6.8560  -6.8419  -6.8264
    -6.7805  -6.7765  -6.7011  -6.6971  -6.5966  -6.5961  -6.5671  -6.5646
    -6.5637  -6.5161  -6.4152  -6.3574  -6.3560  -5.5864  -5.5854  -5.0095
    -4.9472  -4.8658  -4.8656  -4.7872  -4.7579  -4.7247  -4.7206  -4.5314
    -4.5279  -4.4487  -3.8487  -3.8459  -3.7932  -3.7929  -3.7841  -3.6209
    -3.6187  -3.3660  -1.8795  -1.8257  -1.8250  -1.7120  -1.7103  -1.1882
    -0.4399  -0.4244   0.9139   0.9501   0.9509   1.1172   1.1189   1.5089
     2.4912   2.7956   2.7959   2.8390   2.9585   2.9596   3.3729   3.4586
     3.6103   3.7220   3.7271   3.7474   3.9241   4.2507

     occupation numbers 
     1.0000   1.0000   1.0000   1.0000   1.0000   1.0000   1.0000   1.0000
     1.0000   1.0000   1.0000   1.0000   1.0000   1.0000   1.0000   1.0000
     1.0000   1.0000   1.0000   1.0000   1.0000   1.0000   1.0000   1.0000
     1.0000   1.0000   1.0000   1.0000   1.0000   1.0000   1.0000   1.0000
     1.0000   1.0000   1.0000   1.0000   1.0000   1.0000   1.0000   1.0000
     1.0000   1.0000   1.0000   1.0000   1.0000   1.0000   1.0000   1.0000
     1.0000   1.0000   1.0000   1.0000   1.0000   1.0000   1.0000   1.0000
     1.0000   1.0000   1.0000   1.0000   1.0000   1.0000   1.0000   1.0000
     1.0000   1.0000   1.0000   1.0000   1.0000   1.0000   1.0000   1.0000
     1.0000   1.0000   1.0000   1.0000   1.0000   1.0000   1.0000   1.0000
     1.0000   1.0000   1.0000   1.0000   1.0000   1.0000   1.0000   1.0000
     1.0000   1.0000   1.0000   1.0000   1.0000   1.0000   1.0000   1.0000
     1.0000   1.0000   1.0000   1.0000   1.0000   1.0000   1.0000   1.0000
     0.0000   0.0000   0.0000   0.0000   0.0000   0.0000   0.0000   0.0000
     0.0000   0.0000   0.0000   0.0000   0.0000   0.0000   0.0000   0.0000
     0.0000   0.0000   0.0000   0.0000   0.0000   0.0000

     the Fermi energy is    -0.8322 ev

!    total energy              =    -734.76121465 Ry
     Harris-Foulkes estimate   =    -734.76121511 Ry
     estimated scf accuracy    <       0.00000082 Ry

     The total energy is the sum of the following terms:

     one-electron contribution =   -2491.60187429 Ry
     hartree contribution      =    1301.53605739 Ry
     xc contribution           =    -275.92740516 Ry
     ewald contribution        =     731.23233517 Ry
     smearing contrib. (-TS)   =      -0.00032776 Ry

     total magnetization       =     1.00 Bohr mag/cell
     absolute magnetization    =     1.06 Bohr mag/cell

     convergence has been achieved in  26 iterations

     Writing output data file rotate-0.save/

     init_run     :     82.20s CPU     83.93s WALL (       1 calls)
     electrons    :   2645.86s CPU   2695.14s WALL (       1 calls)

     Called by init_run:
     wfcinit      :     51.76s CPU     52.17s WALL (       1 calls)
     wfcinit:atom :      0.06s CPU      0.10s WALL (       2 calls)
     wfcinit:wfcr :     51.32s CPU     51.60s WALL (       2 calls)
     potinit      :     12.55s CPU     13.11s WALL (       1 calls)
     hinit0       :      7.07s CPU      7.13s WALL (       1 calls)

     Called by electrons:
     c_bands      :   1654.07s CPU   1663.75s WALL (      26 calls)
     sum_band     :    578.63s CPU    594.65s WALL (      26 calls)
     v_of_rho     :    203.84s CPU    213.58s WALL (      27 calls)
     v_h          :      2.22s CPU      2.26s WALL (      27 calls)
     v_xc         :    201.62s CPU    211.32s WALL (      27 calls)
     newd         :    208.41s CPU    222.98s WALL (      27 calls)
     mix_rho      :     12.10s CPU     12.37s WALL (      26 calls)

     Called by c_bands:
     init_us_2    :      5.22s CPU      5.28s WALL (     106 calls)
     cegterg      :   1641.24s CPU   1650.90s WALL (      52 calls)

     Called by sum_band:
     sum_band:bec :      0.04s CPU      0.04s WALL (      52 calls)
     addusdens    :    361.99s CPU    376.68s WALL (      26 calls)

     Called by *egterg:
     h_psi        :    897.17s CPU    904.35s WALL (     182 calls)
     s_psi        :    299.40s CPU    299.46s WALL (     182 calls)
     g_psi        :      0.88s CPU      0.88s WALL (     128 calls)
     cdiaghg      :     11.42s CPU     11.43s WALL (     180 calls)
     cegterg:over :    190.34s CPU    190.40s WALL (     128 calls)
     cegterg:upda :    112.66s CPU    113.41s WALL (     128 calls)
     cegterg:last :     86.10s CPU     86.11s WALL (      52 calls)

     Called by h_psi:
     h_psi:pot    :    896.24s CPU    902.21s WALL (     182 calls)
     h_psi:calbec :    296.35s CPU    296.40s WALL (     182 calls)
     vloc_psi     :    300.35s CPU    306.23s WALL (     182 calls)
     add_vuspsi   :    299.54s CPU    299.58s WALL (     182 calls)

     General routines
     calbec       :    426.46s CPU    426.53s WALL (     234 calls)
     fft          :    118.35s CPU    122.29s WALL (    2019 calls)
     ffts         :      2.13s CPU      2.20s WALL (     106 calls)
     fftw         :    319.29s CPU    325.65s WALL (   36062 calls)
     interpolate  :      4.91s CPU      5.02s WALL (      54 calls)

     Parallel routines
     fft_scatt_xy :     79.77s CPU     80.95s WALL (   38187 calls)
     fft_scatt_yz :    145.72s CPU    153.11s WALL (   38187 calls)

     PWSCF        :  45m29.48s CPU  46m20.88s WALL


   This run was terminated on:  16:52:14  15Sep2022            

=------------------------------------------------------------------------------=
   JOB DONE.
=------------------------------------------------------------------------------=
