
     Program PWSCF v.6.4.1 starts on 18Jul2022 at 22:15:44 

     This program is part of the open-source Quantum ESPRESSO suite
     for quantum simulation of materials; please cite
         "P. Giannozzi et al., J. Phys.:Condens. Matter 21 395502 (2009);
         "P. Giannozzi et al., J. Phys.:Condens. Matter 29 465901 (2017);
          URL http://www.quantum-espresso.org", 
     in publications or presentations arising from this work. More details at
     http://www.quantum-espresso.org/quote

     Parallel version (MPI), running on     6 processors

     MPI processes distributed on     1 nodes
     R & G space division:  proc/nbgrp/npool/nimage =       6
     Reading input from distance-4.0.in

     Current dimensions of program PWSCF are:
     Max number of different atomic species (ntypx) = 10
     Max number of k-points (npk) =  40000
     Max angular momentum in pseudopotentials (lmaxx) =  3

     IMPORTANT: XC functional enforced from input :
     Exchange-correlation      = RVV10 ( 1  4 13  4 3 0)
     Any further DFT definition will be discarded
     Please, verify this is what you really want

               file H.pbe-rrkjus.UPF: wavefunction(s)  1S renormalized
               file Cu.pbe-dn-rrkjus_psl.1.0.0.UPF: wavefunction(s)  3D renormalized

     Subspace diagonalization in iterative solution of the eigenvalue problem:
     a serial algorithm will be used


     Parallelization info
     --------------------
     sticks:   dense  smooth     PW     G-vecs:    dense   smooth      PW
     Min        3051    1746    432               270999   117096   14629
     Max        3053    1747    437               271001   117099   14630
     Sum       18313   10477   2611              1626001   702581   87777



     bravais-lattice index     =            4
     lattice parameter (alat)  =      23.2937  a.u.
     unit-cell volume          =    8879.8548 (a.u.)^3
     number of atoms/cell      =           52
     number of atomic types    =            3
     number of electrons       =       209.00
     number of Kohn-Sham states=          126
     kinetic-energy cutoff     =      70.0000  Ry
     charge density cutoff     =     490.0000  Ry
     convergence threshold     =      1.0E-06
     mixing beta               =       0.7000
     number of iterations used =            8  plain     mixing
     Exchange-correlation      = RVV10 ( 1  4 13  4 3 0)

     celldm(1)=  23.293684  celldm(2)=   0.000000  celldm(3)=   0.811261
     celldm(4)=   0.000000  celldm(5)=   0.000000  celldm(6)=   0.000000

     crystal axes: (cart. coord. in units of alat)
               a(1) = (   1.000000   0.000000   0.000000 )  
               a(2) = (  -0.500000   0.866025   0.000000 )  
               a(3) = (   0.000000   0.000000   0.811261 )  

     reciprocal axes: (cart. coord. in units 2 pi/alat)
               b(1) = (  1.000000  0.577350 -0.000000 )  
               b(2) = (  0.000000  1.154701  0.000000 )  
               b(3) = (  0.000000 -0.000000  1.232649 )  


     PseudoPot. # 1 for H  read from file:
     /home/cristian/Escritorio/Proyecto_Grafeno/pseudopotenciales/H.pbe-rrkjus.UPF
     MD5 check sum: 7cc9d459525c9a0585f487a71c3c9563
     Pseudo is Ultrasoft, Zval =  1.0
     Generated by new atomic code, or converted to UPF format
     Using radial grid of 1061 points,  2 beta functions with: 
                l(1) =   0
                l(2) =   0
     Q(r) pseudized with 0 coefficients 


     PseudoPot. # 2 for C  read from file:
     /home/cristian/Escritorio/Proyecto_Grafeno/pseudopotenciales/C.pbe-n-rrkjus_psl.1.0.0.UPF
     MD5 check sum: 1fdd950c42eb37d8afe3dd2f8d12311e
     Pseudo is Ultrasoft + core correction, Zval =  4.0
     Generated using "atomic" code by A. Dal Corso v.6.3MaX
     Using radial grid of 1073 points,  4 beta functions with: 
                l(1) =   0
                l(2) =   0
                l(3) =   1
                l(4) =   1
     Q(r) pseudized with 0 coefficients 


     PseudoPot. # 3 for Cu read from file:
     /home/cristian/Escritorio/Proyecto_Grafeno/pseudopotenciales/Cu.pbe-dn-rrkjus_psl.1.0.0.UPF
     MD5 check sum: ba3d6c84e19846e79d48cdc68ff7152b
     Pseudo is Ultrasoft + core correction, Zval = 11.0
     Generated using "atomic" code by A. Dal Corso v.6.3
     Using radial grid of 1199 points,  6 beta functions with: 
                l(1) =   0
                l(2) =   0
                l(3) =   1
                l(4) =   1
                l(5) =   2
                l(6) =   2
     Q(r) pseudized with 0 coefficients 


     vdW kernel table read from file rVV10_kernel_table
     MD5 check sum: b8e2538accc0c0b3206b45ba4daaba6c

     atomic species   valence    mass     pseudopotential
        H              1.00     1.00794     H ( 1.00)
        C              4.00    12.01070     C ( 1.00)
        Cu            11.00    63.54600     Cu( 1.00)

      2 Sym. Ops. (no inversion) found


                                    s                        frac. trans.

      isym =  1     identity                                     

 cryst.   s( 1) = (     1          0          0      )
                  (     0          1          0      )
                  (     0          0          1      )

 cart.    s( 1) = (  1.0000000  0.0000000  0.0000000 )
                  (  0.0000000  1.0000000  0.0000000 )
                  (  0.0000000  0.0000000  1.0000000 )


      isym =  2     inv. 180 deg rotation - cryst. axis [1,1,0]  

 cryst.   s( 2) = (     0         -1          0      )
                  (    -1          0          0      )
                  (     0          0          1      )

 cart.    s( 2) = (  0.5000000 -0.8660254  0.0000000 )
                  ( -0.8660254 -0.5000000  0.0000000 )
                  (  0.0000000  0.0000000  1.0000000 )


     point group C_s (m)    
     there are  2 classes
     the character table:

       E     s    
A'     1.00  1.00
A''    1.00 -1.00

     the symmetry operations in each class and the name of the first element:

     E        1
          identity                                               
     s        2
          inv. 180 deg rotation - cryst. axis [1,1,0]            

   Cartesian axes

     site n.     atom                  positions (alat units)
         1           H   tau(   1) = (   0.2000000   0.4618802   0.3245045  )
         2           H   tau(   2) = (   0.2000000   0.4618802   0.3855171  )
         3           C   tau(   3) = (   0.0000000   0.0000000   0.0000000  )
         4           C   tau(   4) = (   0.0000000   0.1154701   0.0000000  )
         5           C   tau(   5) = (  -0.1000000   0.1732051   0.0000000  )
         6           C   tau(   6) = (  -0.1000000   0.2886751   0.0000000  )
         7           C   tau(   7) = (  -0.2000000   0.3464102   0.0000000  )
         8           C   tau(   8) = (  -0.2000000   0.4618802   0.0000000  )
         9           C   tau(   9) = (  -0.3000000   0.5196152   0.0000000  )
        10           C   tau(  10) = (  -0.3000000   0.6350853   0.0000000  )
        11           C   tau(  11) = (  -0.4000000   0.6928203   0.0000000  )
        12           C   tau(  12) = (  -0.4000000   0.8082904   0.0000000  )
        13           C   tau(  13) = (   0.2000000   0.0000000   0.0000000  )
        14           C   tau(  14) = (   0.2000000   0.1154701   0.0000000  )
        15           C   tau(  15) = (   0.1000000   0.1732051   0.0000000  )
        16           C   tau(  16) = (   0.1000000   0.2886751   0.0000000  )
        17           C   tau(  17) = (   0.0000000   0.3464102   0.0000000  )
        18           C   tau(  18) = (   0.0000000   0.4618802   0.0000000  )
        19           C   tau(  19) = (  -0.1000000   0.5196152   0.0000000  )
        20           C   tau(  20) = (  -0.1000000   0.6350853   0.0000000  )
        21           C   tau(  21) = (  -0.2000000   0.6928203   0.0000000  )
        22           C   tau(  22) = (  -0.2000000   0.8082904   0.0000000  )
        23           C   tau(  23) = (   0.4000000   0.0000000   0.0000000  )
        24           C   tau(  24) = (   0.4000000   0.1154701   0.0000000  )
        25           C   tau(  25) = (   0.3000000   0.1732051   0.0000000  )
        26           C   tau(  26) = (   0.3000000   0.2886751   0.0000000  )
        27           C   tau(  27) = (   0.2000000   0.3464102   0.0000000  )
        28           Cu  tau(  28) = (   0.2000000   0.4618802   0.0000000  )
        29           C   tau(  29) = (   0.1000000   0.5196152   0.0000000  )
        30           C   tau(  30) = (   0.1000000   0.6350853   0.0000000  )
        31           C   tau(  31) = (   0.0000000   0.6928203   0.0000000  )
        32           C   tau(  32) = (   0.0000000   0.8082904   0.0000000  )
        33           C   tau(  33) = (   0.6000000   0.0000000   0.0000000  )
        34           C   tau(  34) = (   0.6000000   0.1154701   0.0000000  )
        35           C   tau(  35) = (   0.5000000   0.1732051   0.0000000  )
        36           C   tau(  36) = (   0.5000000   0.2886751   0.0000000  )
        37           C   tau(  37) = (   0.4000000   0.3464102   0.0000000  )
        38           C   tau(  38) = (   0.4000000   0.4618802   0.0000000  )
        39           C   tau(  39) = (   0.3000000   0.5196152   0.0000000  )
        40           C   tau(  40) = (   0.3000000   0.6350853   0.0000000  )
        41           C   tau(  41) = (   0.2000000   0.6928203   0.0000000  )
        42           C   tau(  42) = (   0.2000000   0.8082904   0.0000000  )
        43           C   tau(  43) = (   0.8000000   0.0000000   0.0000000  )
        44           C   tau(  44) = (   0.8000000   0.1154701   0.0000000  )
        45           C   tau(  45) = (   0.7000000   0.1732051   0.0000000  )
        46           C   tau(  46) = (   0.7000000   0.2886751   0.0000000  )
        47           C   tau(  47) = (   0.6000000   0.3464102   0.0000000  )
        48           C   tau(  48) = (   0.6000000   0.4618802   0.0000000  )
        49           C   tau(  49) = (   0.5000000   0.5196152   0.0000000  )
        50           C   tau(  50) = (   0.5000000   0.6350853   0.0000000  )
        51           C   tau(  51) = (   0.4000000   0.6928203   0.0000000  )
        52           C   tau(  52) = (   0.4000000   0.8082904   0.0000000  )

   Crystallographic axes

     site n.     atom                  positions (cryst. coord.)
         1           H   tau(   1) = (  0.4666667  0.5333333  0.4000000  )
         2           H   tau(   2) = (  0.4666667  0.5333333  0.4752072  )
         3           C   tau(   3) = (  0.0000000  0.0000000  0.0000000  )
         4           C   tau(   4) = (  0.0666667  0.1333333  0.0000000  )
         5           C   tau(   5) = (  0.0000000  0.2000000  0.0000000  )
         6           C   tau(   6) = (  0.0666667  0.3333333  0.0000000  )
         7           C   tau(   7) = (  0.0000000  0.4000000  0.0000000  )
         8           C   tau(   8) = (  0.0666667  0.5333333  0.0000000  )
         9           C   tau(   9) = (  0.0000000  0.6000000  0.0000000  )
        10           C   tau(  10) = (  0.0666667  0.7333333  0.0000000  )
        11           C   tau(  11) = (  0.0000000  0.8000000  0.0000000  )
        12           C   tau(  12) = (  0.0666667  0.9333333  0.0000000  )
        13           C   tau(  13) = (  0.2000000  0.0000000  0.0000000  )
        14           C   tau(  14) = (  0.2666667  0.1333333  0.0000000  )
        15           C   tau(  15) = (  0.2000000  0.2000000  0.0000000  )
        16           C   tau(  16) = (  0.2666667  0.3333333  0.0000000  )
        17           C   tau(  17) = (  0.2000000  0.4000000  0.0000000  )
        18           C   tau(  18) = (  0.2666667  0.5333333  0.0000000  )
        19           C   tau(  19) = (  0.2000000  0.6000000  0.0000000  )
        20           C   tau(  20) = (  0.2666667  0.7333333  0.0000000  )
        21           C   tau(  21) = (  0.2000000  0.8000000  0.0000000  )
        22           C   tau(  22) = (  0.2666667  0.9333333  0.0000000  )
        23           C   tau(  23) = (  0.4000000  0.0000000  0.0000000  )
        24           C   tau(  24) = (  0.4666667  0.1333333  0.0000000  )
        25           C   tau(  25) = (  0.4000000  0.2000000  0.0000000  )
        26           C   tau(  26) = (  0.4666667  0.3333333  0.0000000  )
        27           C   tau(  27) = (  0.4000000  0.4000000  0.0000000  )
        28           Cu  tau(  28) = (  0.4666667  0.5333333  0.0000000  )
        29           C   tau(  29) = (  0.4000000  0.6000000  0.0000000  )
        30           C   tau(  30) = (  0.4666667  0.7333333  0.0000000  )
        31           C   tau(  31) = (  0.4000000  0.8000000  0.0000000  )
        32           C   tau(  32) = (  0.4666667  0.9333333  0.0000000  )
        33           C   tau(  33) = (  0.6000000  0.0000000  0.0000000  )
        34           C   tau(  34) = (  0.6666667  0.1333333  0.0000000  )
        35           C   tau(  35) = (  0.6000000  0.2000000  0.0000000  )
        36           C   tau(  36) = (  0.6666667  0.3333333  0.0000000  )
        37           C   tau(  37) = (  0.6000000  0.4000000  0.0000000  )
        38           C   tau(  38) = (  0.6666667  0.5333333  0.0000000  )
        39           C   tau(  39) = (  0.6000000  0.6000000  0.0000000  )
        40           C   tau(  40) = (  0.6666667  0.7333333  0.0000000  )
        41           C   tau(  41) = (  0.6000000  0.8000000  0.0000000  )
        42           C   tau(  42) = (  0.6666667  0.9333333  0.0000000  )
        43           C   tau(  43) = (  0.8000000  0.0000000  0.0000000  )
        44           C   tau(  44) = (  0.8666667  0.1333333  0.0000000  )
        45           C   tau(  45) = (  0.8000000  0.2000000  0.0000000  )
        46           C   tau(  46) = (  0.8666667  0.3333333  0.0000000  )
        47           C   tau(  47) = (  0.8000000  0.4000000  0.0000000  )
        48           C   tau(  48) = (  0.8666667  0.5333333  0.0000000  )
        49           C   tau(  49) = (  0.8000000  0.6000000  0.0000000  )
        50           C   tau(  50) = (  0.8666667  0.7333333  0.0000000  )
        51           C   tau(  51) = (  0.8000000  0.8000000  0.0000000  )
        52           C   tau(  52) = (  0.8666667  0.9333333  0.0000000  )

     number of k points=     1  Marzari-Vanderbilt smearing, width (Ry)=  0.0010
                       cart. coord. in units 2pi/alat
        k(    1) = (   0.0000000   0.0000000   0.0000000), wk =   2.0000000

                       cryst. coord.
        k(    1) = (   0.0000000   0.0000000   0.0000000), wk =   2.0000000

     Dense  grid:  1626001 G-vectors     FFT dimensions: ( 180, 180, 135)

     Smooth grid:   702581 G-vectors     FFT dimensions: ( 125, 125, 108)

     Dynamical RAM for                 wfc:      28.14 MB

     Dynamical RAM for     wfc (w. buffer):      28.14 MB

     Dynamical RAM for           str. fact:      12.41 MB

     Dynamical RAM for           local pot:       0.00 MB

     Dynamical RAM for          nlocal pot:      92.46 MB

     Dynamical RAM for                qrad:      19.73 MB

     Dynamical RAM for          rho,v,vnew:      29.46 MB

     Dynamical RAM for               rhoin:       9.82 MB

     Dynamical RAM for            rho*nmix:      66.16 MB

     Dynamical RAM for           G-vectors:      16.40 MB

     Dynamical RAM for          h,s,v(r/c):      11.63 MB

     Dynamical RAM for          <psi|beta>:       0.80 MB

     Dynamical RAM for                 psi:     112.56 MB

     Dynamical RAM for                hpsi:     112.56 MB

     Dynamical RAM for                spsi:     112.56 MB

     Dynamical RAM for      wfcinit/wfcrot:      93.45 MB

     Dynamical RAM for           addusdens:     971.75 MB

     Estimated static dynamical RAM per process >     319.55 MB

     Estimated max dynamical RAM per process >       1.26 GB

     Estimated total dynamical RAM >       7.57 GB

     Check: negative core charge=   -0.000002

     Initial potential from superposition of free atoms

     starting charge  208.80532, renormalised to  209.00000

     negative rho (up, down):  6.640E-05 0.000E+00


---------------------------------------------------------------------------------
Carrying out rVV10 run using the following parameters:
Nqs =      20    Nr_points =    1024   r_max =   100.000
b_value =  6.30000    beta =  0.00901
     q_mesh =  0.00010000  0.00030000  0.00058939  0.00100810
               0.00161396  0.00249058  0.00375900  0.00559430
               0.00824984  0.01209221  0.01765183  0.02569619
               0.03733578  0.05417739  0.07854596  0.11380545
               0.16482331  0.23864234  0.34545298  0.50000000

Gradients computed in Reciprocal space

---------------------------------------------------------------------------------


     Starting wfcs are  207 randomized atomic wfcs

     total cpu time spent up to now is       47.1 secs

     Self-consistent Calculation

     iteration #  1     ecut=    70.00 Ry     beta= 0.70
     Davidson diagonalization with overlap
     ethr =  1.00E-02,  avg # of iterations =  2.0

     negative rho (up, down):  1.294E-04 0.000E+00

     total cpu time spent up to now is      115.7 secs

     total energy              =    -732.16630498 Ry
     Harris-Foulkes estimate   =    -737.63570335 Ry
     estimated scf accuracy    <       8.08452938 Ry

     iteration #  2     ecut=    70.00 Ry     beta= 0.70
     Davidson diagonalization with overlap
     ethr =  3.87E-03,  avg # of iterations =  4.0

     negative rho (up, down):  1.503E-04 0.000E+00

     total cpu time spent up to now is      182.1 secs

     total energy              =    -731.17622499 Ry
     Harris-Foulkes estimate   =    -738.23546845 Ry
     estimated scf accuracy    <      15.44813294 Ry

     iteration #  3     ecut=    70.00 Ry     beta= 0.70
     Davidson diagonalization with overlap
     ethr =  3.87E-03,  avg # of iterations =  6.0

     negative rho (up, down):  1.936E-04 0.000E+00

     total cpu time spent up to now is      240.3 secs

     total energy              =    -732.91861373 Ry
     Harris-Foulkes estimate   =    -736.21675520 Ry
     estimated scf accuracy    <      10.95842028 Ry

     iteration #  4     ecut=    70.00 Ry     beta= 0.70
     Davidson diagonalization with overlap
     ethr =  3.87E-03,  avg # of iterations =  3.0

     negative rho (up, down):  2.199E-04 0.000E+00

     total cpu time spent up to now is      296.5 secs

     total energy              =    -734.15960351 Ry
     Harris-Foulkes estimate   =    -734.97604738 Ry
     estimated scf accuracy    <       3.79146600 Ry

     iteration #  5     ecut=    70.00 Ry     beta= 0.70
     Davidson diagonalization with overlap
     ethr =  1.81E-03,  avg # of iterations =  1.0

     negative rho (up, down):  2.367E-04 0.000E+00

     total cpu time spent up to now is      347.2 secs

     total energy              =    -734.72597384 Ry
     Harris-Foulkes estimate   =    -734.80519992 Ry
     estimated scf accuracy    <       0.25821404 Ry

     iteration #  6     ecut=    70.00 Ry     beta= 0.70
     Davidson diagonalization with overlap
     ethr =  1.24E-04,  avg # of iterations =  9.0

     negative rho (up, down):  2.583E-04 0.000E+00

     total cpu time spent up to now is      408.7 secs

     total energy              =    -734.74737487 Ry
     Harris-Foulkes estimate   =    -734.77120967 Ry
     estimated scf accuracy    <       0.11461032 Ry

     iteration #  7     ecut=    70.00 Ry     beta= 0.70
     Davidson diagonalization with overlap
     ethr =  5.48E-05,  avg # of iterations =  2.0

     negative rho (up, down):  2.850E-04 0.000E+00

     total cpu time spent up to now is      460.5 secs

     total energy              =    -734.75090634 Ry
     Harris-Foulkes estimate   =    -734.77113184 Ry
     estimated scf accuracy    <       0.11022509 Ry

     iteration #  8     ecut=    70.00 Ry     beta= 0.70
     Davidson diagonalization with overlap
     ethr =  5.27E-05,  avg # of iterations =  2.0

     negative rho (up, down):  3.705E-04 0.000E+00

     total cpu time spent up to now is      511.9 secs

     total energy              =    -734.74920426 Ry
     Harris-Foulkes estimate   =    -734.75690238 Ry
     estimated scf accuracy    <       0.03548258 Ry

     iteration #  9     ecut=    70.00 Ry     beta= 0.70
     Davidson diagonalization with overlap
     ethr =  1.70E-05,  avg # of iterations = 13.0

     negative rho (up, down):  4.545E-04 0.000E+00

     total cpu time spent up to now is      570.3 secs

     total energy              =    -734.75060165 Ry
     Harris-Foulkes estimate   =    -734.75410657 Ry
     estimated scf accuracy    <       0.03016440 Ry

     iteration # 10     ecut=    70.00 Ry     beta= 0.70
     Davidson diagonalization with overlap
     ethr =  1.44E-05,  avg # of iterations =  1.0

     negative rho (up, down):  5.379E-04 0.000E+00

     total cpu time spent up to now is      621.2 secs

     total energy              =    -734.75080258 Ry
     Harris-Foulkes estimate   =    -734.75169833 Ry
     estimated scf accuracy    <       0.00471631 Ry

     iteration # 11     ecut=    70.00 Ry     beta= 0.70
     Davidson diagonalization with overlap
     ethr =  2.26E-06,  avg # of iterations =  4.0

     negative rho (up, down):  5.822E-04 0.000E+00

     total cpu time spent up to now is      676.0 secs

     total energy              =    -734.75100158 Ry
     Harris-Foulkes estimate   =    -734.75147296 Ry
     estimated scf accuracy    <       0.00492224 Ry

     iteration # 12     ecut=    70.00 Ry     beta= 0.70
     Davidson diagonalization with overlap
     ethr =  2.26E-06,  avg # of iterations =  1.0

     negative rho (up, down):  5.822E-04 0.000E+00

     total cpu time spent up to now is      726.9 secs

     total energy              =    -734.75113328 Ry
     Harris-Foulkes estimate   =    -734.75139183 Ry
     estimated scf accuracy    <       0.00489628 Ry

     iteration # 13     ecut=    70.00 Ry     beta= 0.70
     Davidson diagonalization with overlap
     ethr =  2.26E-06,  avg # of iterations =  1.0

     negative rho (up, down):  5.806E-04 0.000E+00

     total cpu time spent up to now is      777.7 secs

     total energy              =    -734.75126943 Ry
     Harris-Foulkes estimate   =    -734.75134267 Ry
     estimated scf accuracy    <       0.00212485 Ry

     iteration # 14     ecut=    70.00 Ry     beta= 0.70
     Davidson diagonalization with overlap
     ethr =  1.02E-06,  avg # of iterations =  1.0

     negative rho (up, down):  5.786E-04 0.000E+00

     total cpu time spent up to now is      828.4 secs

     total energy              =    -734.75130689 Ry
     Harris-Foulkes estimate   =    -734.75131187 Ry
     estimated scf accuracy    <       0.00004118 Ry

     iteration # 15     ecut=    70.00 Ry     beta= 0.70
     Davidson diagonalization with overlap
     ethr =  1.97E-08,  avg # of iterations =  2.0

     negative rho (up, down):  5.775E-04 0.000E+00

     total cpu time spent up to now is      880.4 secs

     total energy              =    -734.75131033 Ry
     Harris-Foulkes estimate   =    -734.75131184 Ry
     estimated scf accuracy    <       0.00004173 Ry

     iteration # 16     ecut=    70.00 Ry     beta= 0.70
     Davidson diagonalization with overlap
     ethr =  1.97E-08,  avg # of iterations =  1.0

     negative rho (up, down):  5.774E-04 0.000E+00

     total cpu time spent up to now is      931.6 secs

     total energy              =    -734.75131029 Ry
     Harris-Foulkes estimate   =    -734.75131138 Ry
     estimated scf accuracy    <       0.00002424 Ry

     iteration # 17     ecut=    70.00 Ry     beta= 0.70
     Davidson diagonalization with overlap
     ethr =  1.16E-08,  avg # of iterations =  1.0

     negative rho (up, down):  5.769E-04 0.000E+00

     total cpu time spent up to now is      982.1 secs

     End of self-consistent calculation

          k = 0.0000 0.0000 0.0000 ( 87777 PWs)   bands (ev):

   -19.8364 -18.9908 -18.9906 -18.9089 -18.9088 -18.8481 -18.7358 -17.1565
   -17.1564 -17.1328 -17.0862 -17.0860 -16.8007 -16.3182 -16.3182 -16.1808
   -16.1807 -16.1657 -15.7397 -14.3876 -14.3875 -14.1262 -14.0389 -14.0388
   -13.5643 -13.1624 -13.1624 -13.0823 -12.9273 -12.9273 -12.6078 -12.2688
   -12.2687 -11.7131 -11.6002 -11.6001 -11.1433 -10.8843 -10.8842  -9.5122
    -9.3632  -9.3632  -9.2480  -9.2376  -9.2376  -9.2260  -9.0412  -9.0412
    -9.0318  -9.0318  -8.9094  -8.7058  -8.7058  -7.9597  -7.8929  -7.8369
    -7.6483  -7.6483  -7.5341  -7.5340  -6.9237  -6.8492  -6.8490  -6.8062
    -6.7974  -6.7170  -6.7167  -6.7048  -6.6164  -6.6164  -6.5790  -6.5744
    -6.5743  -6.5455  -6.5273  -6.3867  -6.3867  -5.6080  -5.6080  -5.0280
    -4.9607  -4.9184  -4.8845  -4.8844  -4.7680  -4.7328  -4.7327  -4.5441
    -4.5441  -4.4693  -3.8576  -3.8576  -3.8138  -3.8137  -3.7911  -3.6385
    -3.6385  -3.3963  -1.8893  -1.8337  -1.8336  -1.7299  -1.7297  -1.2129
    -0.6484  -0.6483   0.9048   0.9416   0.9417   1.0987   1.0988   1.4940
     2.5440   2.7871   2.7872   2.8303   2.9375   2.9375   3.3632   3.6553
     3.6555   3.7962   3.8064   3.8065   3.8264   3.9367

     occupation numbers 
     1.0000   1.0000   1.0000   1.0000   1.0000   1.0000   1.0000   1.0000
     1.0000   1.0000   1.0000   1.0000   1.0000   1.0000   1.0000   1.0000
     1.0000   1.0000   1.0000   1.0000   1.0000   1.0000   1.0000   1.0000
     1.0000   1.0000   1.0000   1.0000   1.0000   1.0000   1.0000   1.0000
     1.0000   1.0000   1.0000   1.0000   1.0000   1.0000   1.0000   1.0000
     1.0000   1.0000   1.0000   1.0000   1.0000   1.0000   1.0000   1.0000
     1.0000   1.0000   1.0000   1.0000   1.0000   1.0000   1.0000   1.0000
     1.0000   1.0000   1.0000   1.0000   1.0000   1.0000   1.0000   1.0000
     1.0000   1.0000   1.0000   1.0000   1.0000   1.0000   1.0000   1.0000
     1.0000   1.0000   1.0000   1.0000   1.0000   1.0000   1.0000   1.0000
     1.0000   1.0000   1.0000   1.0000   1.0000   1.0000   1.0000   1.0000
     1.0000   1.0000   1.0000   1.0000   1.0000   1.0000   1.0000   1.0000
     1.0000   1.0000   1.0000   1.0000   1.0000   1.0000   1.0000   1.0000
     0.2512   0.2488   0.0000   0.0000   0.0000   0.0000   0.0000   0.0000
     0.0000   0.0000   0.0000   0.0000   0.0000   0.0000   0.0000   0.0000
     0.0000   0.0000   0.0000   0.0000   0.0000   0.0000

     the Fermi energy is    -0.6517 ev

!    total energy              =    -734.75131066 Ry
     Harris-Foulkes estimate   =    -734.75131094 Ry
     estimated scf accuracy    <       0.00000048 Ry

     The total energy is the sum of the following terms:

     one-electron contribution =   -2476.32690583 Ry
     hartree contribution      =    1293.82952894 Ry
     xc contribution           =    -275.90696355 Ry
     ewald contribution        =     723.65364327 Ry
     smearing contrib. (-TS)   =      -0.00061349 Ry

     convergence has been achieved in  17 iterations

     Writing output data file gr-12.save/

     init_run     :     44.73s CPU     45.99s WALL (       1 calls)
     electrons    :    905.71s CPU    935.06s WALL (       1 calls)

     Called by init_run:
     wfcinit      :     21.58s CPU     21.75s WALL (       1 calls)
     wfcinit:atom :      0.03s CPU      0.05s WALL (       1 calls)
     wfcinit:wfcr :     21.37s CPU     21.50s WALL (       1 calls)
     potinit      :     10.72s CPU     11.11s WALL (       1 calls)
     hinit0       :      7.57s CPU      7.61s WALL (       1 calls)

     Called by electrons:
     c_bands      :    537.56s CPU    540.51s WALL (      17 calls)
     sum_band     :    182.07s CPU    192.51s WALL (      17 calls)
     v_of_rho     :    114.58s CPU    121.54s WALL (      18 calls)
     v_h          :      1.31s CPU      1.36s WALL (      18 calls)
     v_xc         :    113.28s CPU    120.17s WALL (      18 calls)
     newd         :     76.56s CPU     86.41s WALL (      18 calls)
     mix_rho      :      3.41s CPU      3.46s WALL (      17 calls)

     Called by c_bands:
     init_us_2    :      1.57s CPU      1.61s WALL (      35 calls)
     cegterg      :    533.30s CPU    536.23s WALL (      17 calls)

     Called by sum_band:
     sum_band:bec :      0.01s CPU      0.01s WALL (      17 calls)
     addusdens    :    113.05s CPU    122.88s WALL (      17 calls)

     Called by *egterg:
     h_psi        :    292.05s CPU    294.22s WALL (      72 calls)
     s_psi        :     96.63s CPU     96.67s WALL (      72 calls)
     g_psi        :      0.31s CPU      0.31s WALL (      54 calls)
     cdiaghg      :      4.74s CPU      4.74s WALL (      71 calls)
     cegterg:over :     62.68s CPU     62.71s WALL (      54 calls)
     cegterg:upda :     37.41s CPU     37.65s WALL (      54 calls)
     cegterg:last :     27.48s CPU     27.50s WALL (      17 calls)

     Called by h_psi:
     h_psi:pot    :    291.67s CPU    293.52s WALL (      72 calls)
     h_psi:calbec :     96.37s CPU     96.40s WALL (      72 calls)
     vloc_psi     :     99.31s CPU    101.08s WALL (      72 calls)
     add_vuspsi   :     96.00s CPU     96.04s WALL (      72 calls)

     General routines
     calbec       :    137.66s CPU    137.71s WALL (      89 calls)
     fft          :     62.44s CPU     65.03s WALL (    1132 calls)
     ffts         :      0.67s CPU      0.70s WALL (      35 calls)
     fftw         :    105.56s CPU    107.53s WALL (   12116 calls)
     interpolate  :      1.59s CPU      1.64s WALL (      18 calls)

     Parallel routines
     fft_scatt_xy :     30.39s CPU     30.77s WALL (   13283 calls)
     fft_scatt_yz :     54.86s CPU     58.03s WALL (   13283 calls)

     PWSCF        :  15m51.68s CPU  16m22.55s WALL


   This run was terminated on:  22:32: 6  18Jul2022            

=------------------------------------------------------------------------------=
   JOB DONE.
=------------------------------------------------------------------------------=
