
     Program PWSCF v.6.4.1 starts on 18Jul2022 at 23:57:29 

     This program is part of the open-source Quantum ESPRESSO suite
     for quantum simulation of materials; please cite
         "P. Giannozzi et al., J. Phys.:Condens. Matter 21 395502 (2009);
         "P. Giannozzi et al., J. Phys.:Condens. Matter 29 465901 (2017);
          URL http://www.quantum-espresso.org", 
     in publications or presentations arising from this work. More details at
     http://www.quantum-espresso.org/quote

     Parallel version (MPI), running on     6 processors

     MPI processes distributed on     1 nodes
     R & G space division:  proc/nbgrp/npool/nimage =       6
     Reading input from distance-2.2.in

     Current dimensions of program PWSCF are:
     Max number of different atomic species (ntypx) = 10
     Max number of k-points (npk) =  40000
     Max angular momentum in pseudopotentials (lmaxx) =  3

     IMPORTANT: XC functional enforced from input :
     Exchange-correlation      = RVV10 ( 1  4 13  4 3 0)
     Any further DFT definition will be discarded
     Please, verify this is what you really want

               file H.pbe-rrkjus.UPF: wavefunction(s)  1S renormalized
               file Cu.pbe-dn-rrkjus_psl.1.0.0.UPF: wavefunction(s)  3D renormalized

     Subspace diagonalization in iterative solution of the eigenvalue problem:
     a serial algorithm will be used


     Parallelization info
     --------------------
     sticks:   dense  smooth     PW     G-vecs:    dense   smooth      PW
     Min        3051    1746    432               270999   117096   14629
     Max        3053    1747    437               271001   117099   14630
     Sum       18313   10477   2611              1626001   702581   87777



     bravais-lattice index     =            4
     lattice parameter (alat)  =      23.2937  a.u.
     unit-cell volume          =    8879.8548 (a.u.)^3
     number of atoms/cell      =           52
     number of atomic types    =            3
     number of electrons       =       209.00
     number of Kohn-Sham states=          126
     kinetic-energy cutoff     =      70.0000  Ry
     charge density cutoff     =     490.0000  Ry
     convergence threshold     =      1.0E-06
     mixing beta               =       0.7000
     number of iterations used =            8  plain     mixing
     Exchange-correlation      = RVV10 ( 1  4 13  4 3 0)

     celldm(1)=  23.293684  celldm(2)=   0.000000  celldm(3)=   0.811261
     celldm(4)=   0.000000  celldm(5)=   0.000000  celldm(6)=   0.000000

     crystal axes: (cart. coord. in units of alat)
               a(1) = (   1.000000   0.000000   0.000000 )  
               a(2) = (  -0.500000   0.866025   0.000000 )  
               a(3) = (   0.000000   0.000000   0.811261 )  

     reciprocal axes: (cart. coord. in units 2 pi/alat)
               b(1) = (  1.000000  0.577350 -0.000000 )  
               b(2) = (  0.000000  1.154701  0.000000 )  
               b(3) = (  0.000000 -0.000000  1.232649 )  


     PseudoPot. # 1 for H  read from file:
     /home/cristian/Escritorio/Proyecto_Grafeno/pseudopotenciales/H.pbe-rrkjus.UPF
     MD5 check sum: 7cc9d459525c9a0585f487a71c3c9563
     Pseudo is Ultrasoft, Zval =  1.0
     Generated by new atomic code, or converted to UPF format
     Using radial grid of 1061 points,  2 beta functions with: 
                l(1) =   0
                l(2) =   0
     Q(r) pseudized with 0 coefficients 


     PseudoPot. # 2 for C  read from file:
     /home/cristian/Escritorio/Proyecto_Grafeno/pseudopotenciales/C.pbe-n-rrkjus_psl.1.0.0.UPF
     MD5 check sum: 1fdd950c42eb37d8afe3dd2f8d12311e
     Pseudo is Ultrasoft + core correction, Zval =  4.0
     Generated using "atomic" code by A. Dal Corso v.6.3MaX
     Using radial grid of 1073 points,  4 beta functions with: 
                l(1) =   0
                l(2) =   0
                l(3) =   1
                l(4) =   1
     Q(r) pseudized with 0 coefficients 


     PseudoPot. # 3 for Cu read from file:
     /home/cristian/Escritorio/Proyecto_Grafeno/pseudopotenciales/Cu.pbe-dn-rrkjus_psl.1.0.0.UPF
     MD5 check sum: ba3d6c84e19846e79d48cdc68ff7152b
     Pseudo is Ultrasoft + core correction, Zval = 11.0
     Generated using "atomic" code by A. Dal Corso v.6.3
     Using radial grid of 1199 points,  6 beta functions with: 
                l(1) =   0
                l(2) =   0
                l(3) =   1
                l(4) =   1
                l(5) =   2
                l(6) =   2
     Q(r) pseudized with 0 coefficients 


     vdW kernel table read from file rVV10_kernel_table
     MD5 check sum: b8e2538accc0c0b3206b45ba4daaba6c

     atomic species   valence    mass     pseudopotential
        H              1.00     1.00794     H ( 1.00)
        C              4.00    12.01070     C ( 1.00)
        Cu            11.00    63.54600     Cu( 1.00)

      2 Sym. Ops. (no inversion) found


                                    s                        frac. trans.

      isym =  1     identity                                     

 cryst.   s( 1) = (     1          0          0      )
                  (     0          1          0      )
                  (     0          0          1      )

 cart.    s( 1) = (  1.0000000  0.0000000  0.0000000 )
                  (  0.0000000  1.0000000  0.0000000 )
                  (  0.0000000  0.0000000  1.0000000 )


      isym =  2     inv. 180 deg rotation - cryst. axis [1,1,0]  

 cryst.   s( 2) = (     0         -1          0      )
                  (    -1          0          0      )
                  (     0          0          1      )

 cart.    s( 2) = (  0.5000000 -0.8660254  0.0000000 )
                  ( -0.8660254 -0.5000000  0.0000000 )
                  (  0.0000000  0.0000000  1.0000000 )


     point group C_s (m)    
     there are  2 classes
     the character table:

       E     s    
A'     1.00  1.00
A''    1.00 -1.00

     the symmetry operations in each class and the name of the first element:

     E        1
          identity                                               
     s        2
          inv. 180 deg rotation - cryst. axis [1,1,0]            

   Cartesian axes

     site n.     atom                  positions (alat units)
         1           H   tau(   1) = (   0.2000000   0.4618802   0.1784775  )
         2           H   tau(   2) = (   0.2000000   0.4618802   0.2394901  )
         3           C   tau(   3) = (   0.0000000   0.0000000   0.0000000  )
         4           C   tau(   4) = (   0.0000000   0.1154701   0.0000000  )
         5           C   tau(   5) = (  -0.1000000   0.1732051   0.0000000  )
         6           C   tau(   6) = (  -0.1000000   0.2886751   0.0000000  )
         7           C   tau(   7) = (  -0.2000000   0.3464102   0.0000000  )
         8           C   tau(   8) = (  -0.2000000   0.4618802   0.0000000  )
         9           C   tau(   9) = (  -0.3000000   0.5196152   0.0000000  )
        10           C   tau(  10) = (  -0.3000000   0.6350853   0.0000000  )
        11           C   tau(  11) = (  -0.4000000   0.6928203   0.0000000  )
        12           C   tau(  12) = (  -0.4000000   0.8082904   0.0000000  )
        13           C   tau(  13) = (   0.2000000   0.0000000   0.0000000  )
        14           C   tau(  14) = (   0.2000000   0.1154701   0.0000000  )
        15           C   tau(  15) = (   0.1000000   0.1732051   0.0000000  )
        16           C   tau(  16) = (   0.1000000   0.2886751   0.0000000  )
        17           C   tau(  17) = (   0.0000000   0.3464102   0.0000000  )
        18           C   tau(  18) = (   0.0000000   0.4618802   0.0000000  )
        19           C   tau(  19) = (  -0.1000000   0.5196152   0.0000000  )
        20           C   tau(  20) = (  -0.1000000   0.6350853   0.0000000  )
        21           C   tau(  21) = (  -0.2000000   0.6928203   0.0000000  )
        22           C   tau(  22) = (  -0.2000000   0.8082904   0.0000000  )
        23           C   tau(  23) = (   0.4000000   0.0000000   0.0000000  )
        24           C   tau(  24) = (   0.4000000   0.1154701   0.0000000  )
        25           C   tau(  25) = (   0.3000000   0.1732051   0.0000000  )
        26           C   tau(  26) = (   0.3000000   0.2886751   0.0000000  )
        27           C   tau(  27) = (   0.2000000   0.3464102   0.0000000  )
        28           Cu  tau(  28) = (   0.2000000   0.4618802   0.0000000  )
        29           C   tau(  29) = (   0.1000000   0.5196152   0.0000000  )
        30           C   tau(  30) = (   0.1000000   0.6350853   0.0000000  )
        31           C   tau(  31) = (   0.0000000   0.6928203   0.0000000  )
        32           C   tau(  32) = (   0.0000000   0.8082904   0.0000000  )
        33           C   tau(  33) = (   0.6000000   0.0000000   0.0000000  )
        34           C   tau(  34) = (   0.6000000   0.1154701   0.0000000  )
        35           C   tau(  35) = (   0.5000000   0.1732051   0.0000000  )
        36           C   tau(  36) = (   0.5000000   0.2886751   0.0000000  )
        37           C   tau(  37) = (   0.4000000   0.3464102   0.0000000  )
        38           C   tau(  38) = (   0.4000000   0.4618802   0.0000000  )
        39           C   tau(  39) = (   0.3000000   0.5196152   0.0000000  )
        40           C   tau(  40) = (   0.3000000   0.6350853   0.0000000  )
        41           C   tau(  41) = (   0.2000000   0.6928203   0.0000000  )
        42           C   tau(  42) = (   0.2000000   0.8082904   0.0000000  )
        43           C   tau(  43) = (   0.8000000   0.0000000   0.0000000  )
        44           C   tau(  44) = (   0.8000000   0.1154701   0.0000000  )
        45           C   tau(  45) = (   0.7000000   0.1732051   0.0000000  )
        46           C   tau(  46) = (   0.7000000   0.2886751   0.0000000  )
        47           C   tau(  47) = (   0.6000000   0.3464102   0.0000000  )
        48           C   tau(  48) = (   0.6000000   0.4618802   0.0000000  )
        49           C   tau(  49) = (   0.5000000   0.5196152   0.0000000  )
        50           C   tau(  50) = (   0.5000000   0.6350853   0.0000000  )
        51           C   tau(  51) = (   0.4000000   0.6928203   0.0000000  )
        52           C   tau(  52) = (   0.4000000   0.8082904   0.0000000  )

   Crystallographic axes

     site n.     atom                  positions (cryst. coord.)
         1           H   tau(   1) = (  0.4666667  0.5333333  0.2200000  )
         2           H   tau(   2) = (  0.4666667  0.5333333  0.2952072  )
         3           C   tau(   3) = (  0.0000000  0.0000000  0.0000000  )
         4           C   tau(   4) = (  0.0666667  0.1333333  0.0000000  )
         5           C   tau(   5) = (  0.0000000  0.2000000  0.0000000  )
         6           C   tau(   6) = (  0.0666667  0.3333333  0.0000000  )
         7           C   tau(   7) = (  0.0000000  0.4000000  0.0000000  )
         8           C   tau(   8) = (  0.0666667  0.5333333  0.0000000  )
         9           C   tau(   9) = (  0.0000000  0.6000000  0.0000000  )
        10           C   tau(  10) = (  0.0666667  0.7333333  0.0000000  )
        11           C   tau(  11) = (  0.0000000  0.8000000  0.0000000  )
        12           C   tau(  12) = (  0.0666667  0.9333333  0.0000000  )
        13           C   tau(  13) = (  0.2000000  0.0000000  0.0000000  )
        14           C   tau(  14) = (  0.2666667  0.1333333  0.0000000  )
        15           C   tau(  15) = (  0.2000000  0.2000000  0.0000000  )
        16           C   tau(  16) = (  0.2666667  0.3333333  0.0000000  )
        17           C   tau(  17) = (  0.2000000  0.4000000  0.0000000  )
        18           C   tau(  18) = (  0.2666667  0.5333333  0.0000000  )
        19           C   tau(  19) = (  0.2000000  0.6000000  0.0000000  )
        20           C   tau(  20) = (  0.2666667  0.7333333  0.0000000  )
        21           C   tau(  21) = (  0.2000000  0.8000000  0.0000000  )
        22           C   tau(  22) = (  0.2666667  0.9333333  0.0000000  )
        23           C   tau(  23) = (  0.4000000  0.0000000  0.0000000  )
        24           C   tau(  24) = (  0.4666667  0.1333333  0.0000000  )
        25           C   tau(  25) = (  0.4000000  0.2000000  0.0000000  )
        26           C   tau(  26) = (  0.4666667  0.3333333  0.0000000  )
        27           C   tau(  27) = (  0.4000000  0.4000000  0.0000000  )
        28           Cu  tau(  28) = (  0.4666667  0.5333333  0.0000000  )
        29           C   tau(  29) = (  0.4000000  0.6000000  0.0000000  )
        30           C   tau(  30) = (  0.4666667  0.7333333  0.0000000  )
        31           C   tau(  31) = (  0.4000000  0.8000000  0.0000000  )
        32           C   tau(  32) = (  0.4666667  0.9333333  0.0000000  )
        33           C   tau(  33) = (  0.6000000  0.0000000  0.0000000  )
        34           C   tau(  34) = (  0.6666667  0.1333333  0.0000000  )
        35           C   tau(  35) = (  0.6000000  0.2000000  0.0000000  )
        36           C   tau(  36) = (  0.6666667  0.3333333  0.0000000  )
        37           C   tau(  37) = (  0.6000000  0.4000000  0.0000000  )
        38           C   tau(  38) = (  0.6666667  0.5333333  0.0000000  )
        39           C   tau(  39) = (  0.6000000  0.6000000  0.0000000  )
        40           C   tau(  40) = (  0.6666667  0.7333333  0.0000000  )
        41           C   tau(  41) = (  0.6000000  0.8000000  0.0000000  )
        42           C   tau(  42) = (  0.6666667  0.9333333  0.0000000  )
        43           C   tau(  43) = (  0.8000000  0.0000000  0.0000000  )
        44           C   tau(  44) = (  0.8666667  0.1333333  0.0000000  )
        45           C   tau(  45) = (  0.8000000  0.2000000  0.0000000  )
        46           C   tau(  46) = (  0.8666667  0.3333333  0.0000000  )
        47           C   tau(  47) = (  0.8000000  0.4000000  0.0000000  )
        48           C   tau(  48) = (  0.8666667  0.5333333  0.0000000  )
        49           C   tau(  49) = (  0.8000000  0.6000000  0.0000000  )
        50           C   tau(  50) = (  0.8666667  0.7333333  0.0000000  )
        51           C   tau(  51) = (  0.8000000  0.8000000  0.0000000  )
        52           C   tau(  52) = (  0.8666667  0.9333333  0.0000000  )

     number of k points=     1  Marzari-Vanderbilt smearing, width (Ry)=  0.0010
                       cart. coord. in units 2pi/alat
        k(    1) = (   0.0000000   0.0000000   0.0000000), wk =   2.0000000

                       cryst. coord.
        k(    1) = (   0.0000000   0.0000000   0.0000000), wk =   2.0000000

     Dense  grid:  1626001 G-vectors     FFT dimensions: ( 180, 180, 135)

     Smooth grid:   702581 G-vectors     FFT dimensions: ( 125, 125, 108)

     Dynamical RAM for                 wfc:      28.14 MB

     Dynamical RAM for     wfc (w. buffer):      28.14 MB

     Dynamical RAM for           str. fact:      12.41 MB

     Dynamical RAM for           local pot:       0.00 MB

     Dynamical RAM for          nlocal pot:      92.46 MB

     Dynamical RAM for                qrad:      19.73 MB

     Dynamical RAM for          rho,v,vnew:      29.46 MB

     Dynamical RAM for               rhoin:       9.82 MB

     Dynamical RAM for            rho*nmix:      66.16 MB

     Dynamical RAM for           G-vectors:      16.40 MB

     Dynamical RAM for          h,s,v(r/c):      11.63 MB

     Dynamical RAM for          <psi|beta>:       0.80 MB

     Dynamical RAM for                 psi:     112.56 MB

     Dynamical RAM for                hpsi:     112.56 MB

     Dynamical RAM for                spsi:     112.56 MB

     Dynamical RAM for      wfcinit/wfcrot:      93.45 MB

     Dynamical RAM for           addusdens:     971.75 MB

     Estimated static dynamical RAM per process >     319.55 MB

     Estimated max dynamical RAM per process >       1.26 GB

     Estimated total dynamical RAM >       7.57 GB

     Check: negative core charge=   -0.000002

     Initial potential from superposition of free atoms

     starting charge  208.80532, renormalised to  209.00000

     negative rho (up, down):  6.667E-05 0.000E+00


---------------------------------------------------------------------------------
Carrying out rVV10 run using the following parameters:
Nqs =      20    Nr_points =    1024   r_max =   100.000
b_value =  6.30000    beta =  0.00901
     q_mesh =  0.00010000  0.00030000  0.00058939  0.00100810
               0.00161396  0.00249058  0.00375900  0.00559430
               0.00824984  0.01209221  0.01765183  0.02569619
               0.03733578  0.05417739  0.07854596  0.11380545
               0.16482331  0.23864234  0.34545298  0.50000000

Gradients computed in Reciprocal space

---------------------------------------------------------------------------------


     Starting wfcs are  207 randomized atomic wfcs

     total cpu time spent up to now is       48.6 secs

     Self-consistent Calculation

     iteration #  1     ecut=    70.00 Ry     beta= 0.70
     Davidson diagonalization with overlap
     ethr =  1.00E-02,  avg # of iterations =  2.0

     negative rho (up, down):  1.619E-04 0.000E+00

     total cpu time spent up to now is      122.4 secs

     total energy              =    -732.46993525 Ry
     Harris-Foulkes estimate   =    -737.59185907 Ry
     estimated scf accuracy    <       7.70401104 Ry

     iteration #  2     ecut=    70.00 Ry     beta= 0.70
     Davidson diagonalization with overlap
     ethr =  3.69E-03,  avg # of iterations =  5.0

     negative rho (up, down):  2.007E-04 0.000E+00

     total cpu time spent up to now is      192.6 secs

     total energy              =    -731.90070084 Ry
     Harris-Foulkes estimate   =    -737.17399753 Ry
     estimated scf accuracy    <      10.40307124 Ry

     iteration #  3     ecut=    70.00 Ry     beta= 0.70
     Davidson diagonalization with overlap
     ethr =  3.69E-03,  avg # of iterations =  8.0

     negative rho (up, down):  2.618E-04 0.000E+00

     total cpu time spent up to now is      252.9 secs

     total energy              =    -730.70448692 Ry
     Harris-Foulkes estimate   =    -736.31914901 Ry
     estimated scf accuracy    <      25.23775627 Ry

     iteration #  4     ecut=    70.00 Ry     beta= 0.70
     Davidson diagonalization with overlap
     ethr =  3.69E-03,  avg # of iterations =  3.0

     negative rho (up, down):  2.812E-04 0.000E+00

     total cpu time spent up to now is      315.7 secs

     total energy              =    -734.32925432 Ry
     Harris-Foulkes estimate   =    -735.36382356 Ry
     estimated scf accuracy    <       6.55792602 Ry

     iteration #  5     ecut=    70.00 Ry     beta= 0.70
     Davidson diagonalization with overlap
     ethr =  3.14E-03,  avg # of iterations =  1.0

     negative rho (up, down):  3.016E-04 0.000E+00

     total cpu time spent up to now is      369.6 secs

     total energy              =    -734.73658178 Ry
     Harris-Foulkes estimate   =    -734.86263463 Ry
     estimated scf accuracy    <       0.51066710 Ry

     iteration #  6     ecut=    70.00 Ry     beta= 0.70
     Davidson diagonalization with overlap
     ethr =  2.44E-04,  avg # of iterations =  6.0

     negative rho (up, down):  3.304E-04 0.000E+00

     total cpu time spent up to now is      429.3 secs

     total energy              =    -734.74235979 Ry
     Harris-Foulkes estimate   =    -734.77258624 Ry
     estimated scf accuracy    <       0.15151874 Ry

     iteration #  7     ecut=    70.00 Ry     beta= 0.70
     Davidson diagonalization with overlap
     ethr =  7.25E-05,  avg # of iterations =  2.0

     negative rho (up, down):  3.653E-04 0.000E+00

     total cpu time spent up to now is      483.6 secs

     total energy              =    -734.74144187 Ry
     Harris-Foulkes estimate   =    -734.77488125 Ry
     estimated scf accuracy    <       0.16497196 Ry

     iteration #  8     ecut=    70.00 Ry     beta= 0.70
     Davidson diagonalization with overlap
     ethr =  7.25E-05,  avg # of iterations =  2.0

     negative rho (up, down):  4.086E-04 0.000E+00

     total cpu time spent up to now is      547.3 secs

     total energy              =    -734.74004807 Ry
     Harris-Foulkes estimate   =    -734.74923432 Ry
     estimated scf accuracy    <       0.05502869 Ry

     iteration #  9     ecut=    70.00 Ry     beta= 0.70
     Davidson diagonalization with overlap
     ethr =  2.63E-05,  avg # of iterations =  2.0

     negative rho (up, down):  5.674E-04 0.000E+00

     total cpu time spent up to now is      611.7 secs

     total energy              =    -734.73710524 Ry
     Harris-Foulkes estimate   =    -734.74385470 Ry
     estimated scf accuracy    <       0.02762915 Ry

     iteration # 10     ecut=    70.00 Ry     beta= 0.70
     Davidson diagonalization with overlap
     ethr =  1.32E-05,  avg # of iterations = 13.0

     negative rho (up, down):  6.170E-04 0.000E+00

     total cpu time spent up to now is      705.1 secs

     total energy              =    -734.73921048 Ry
     Harris-Foulkes estimate   =    -734.74066231 Ry
     estimated scf accuracy    <       0.01594919 Ry

     iteration # 11     ecut=    70.00 Ry     beta= 0.70
     Davidson diagonalization with overlap
     ethr =  7.63E-06,  avg # of iterations =  1.0

     negative rho (up, down):  6.587E-04 0.000E+00

     total cpu time spent up to now is      788.1 secs

     total energy              =    -734.73949407 Ry
     Harris-Foulkes estimate   =    -734.74033805 Ry
     estimated scf accuracy    <       0.01115857 Ry

     iteration # 12     ecut=    70.00 Ry     beta= 0.70
     Davidson diagonalization with overlap
     ethr =  5.34E-06,  avg # of iterations =  1.0

     negative rho (up, down):  6.365E-04 0.000E+00

     total cpu time spent up to now is      875.7 secs

     total energy              =    -734.73979637 Ry
     Harris-Foulkes estimate   =    -734.74025143 Ry
     estimated scf accuracy    <       0.01001616 Ry

     iteration # 13     ecut=    70.00 Ry     beta= 0.70
     Davidson diagonalization with overlap
     ethr =  4.79E-06,  avg # of iterations =  1.0

     negative rho (up, down):  6.499E-04 0.000E+00

     total cpu time spent up to now is      961.4 secs

     total energy              =    -734.73995952 Ry
     Harris-Foulkes estimate   =    -734.74004389 Ry
     estimated scf accuracy    <       0.00044516 Ry

     iteration # 14     ecut=    70.00 Ry     beta= 0.70
     Davidson diagonalization with overlap
     ethr =  2.13E-07,  avg # of iterations =  3.0

     negative rho (up, down):  6.407E-04 0.000E+00

     total cpu time spent up to now is     1039.9 secs

     total energy              =    -734.73994772 Ry
     Harris-Foulkes estimate   =    -734.74010702 Ry
     estimated scf accuracy    <       0.00058292 Ry

     iteration # 15     ecut=    70.00 Ry     beta= 0.70
     Davidson diagonalization with overlap
     ethr =  2.13E-07,  avg # of iterations =  2.0

     negative rho (up, down):  6.421E-04 0.000E+00

     total cpu time spent up to now is     1106.0 secs

     total energy              =    -734.74001882 Ry
     Harris-Foulkes estimate   =    -734.74002192 Ry
     estimated scf accuracy    <       0.00005950 Ry

     iteration # 16     ecut=    70.00 Ry     beta= 0.70
     Davidson diagonalization with overlap
     ethr =  2.85E-08,  avg # of iterations =  1.0

     negative rho (up, down):  6.435E-04 0.000E+00

     total cpu time spent up to now is     1163.0 secs

     total energy              =    -734.74002100 Ry
     Harris-Foulkes estimate   =    -734.74002179 Ry
     estimated scf accuracy    <       0.00000380 Ry

     iteration # 17     ecut=    70.00 Ry     beta= 0.70
     Davidson diagonalization with overlap
     ethr =  1.82E-09,  avg # of iterations =  3.0

     negative rho (up, down):  6.439E-04 0.000E+00

     total cpu time spent up to now is     1223.7 secs

     total energy              =    -734.74002148 Ry
     Harris-Foulkes estimate   =    -734.74002176 Ry
     estimated scf accuracy    <       0.00000156 Ry

     iteration # 18     ecut=    70.00 Ry     beta= 0.70
     Davidson diagonalization with overlap
     ethr =  7.47E-10,  avg # of iterations =  1.0

     negative rho (up, down):  6.441E-04 0.000E+00

     total cpu time spent up to now is     1281.4 secs

     End of self-consistent calculation

          k = 0.0000 0.0000 0.0000 ( 87777 PWs)   bands (ev):

   -19.8428 -18.9968 -18.9967 -18.9148 -18.9147 -18.8539 -18.7444 -17.1623
   -17.1623 -17.1387 -17.0926 -17.0926 -16.8080 -16.3242 -16.3242 -16.1870
   -16.1870 -16.1714 -15.7494 -14.3956 -14.3956 -14.1319 -14.0446 -14.0445
   -13.5720 -13.1690 -13.1690 -13.0882 -12.9341 -12.9341 -12.6163 -12.2776
   -12.2776 -11.7190 -11.6070 -11.6070 -11.1526 -10.8939 -10.8939  -9.5181
    -9.3694  -9.3694  -9.2535  -9.2435  -9.2435  -9.2321  -9.0674  -9.0674
    -9.0474  -9.0474  -8.9349  -8.7125  -8.7125  -8.0244  -7.8989  -7.8610
    -7.6548  -7.6548  -7.5405  -7.5405  -7.3840  -6.8543  -6.8543  -6.8518
    -6.8120  -6.7929  -6.7238  -6.7237  -6.6229  -6.6228  -6.5849  -6.5800
    -6.5799  -6.5332  -6.3929  -6.3928  -6.3037  -5.6148  -5.6148  -5.0341
    -4.9666  -4.8906  -4.8906  -4.7731  -4.7517  -4.7383  -4.7383  -4.5511
    -4.5511  -4.4193  -3.8632  -3.8632  -3.8203  -3.8203  -3.7959  -3.6467
    -3.6467  -3.3453  -1.8945  -1.8389  -1.8389  -1.7383  -1.7383  -1.1998
    -0.6701  -0.6701   0.8993   0.9358   0.9358   1.0884   1.0884   1.4857
     2.5621   2.7802   2.7802   2.8266   2.9236   2.9236   3.3705   3.6809
     3.6824   3.8066   3.8242   3.9551   4.2688   4.4940

     occupation numbers 
     1.0000   1.0000   1.0000   1.0000   1.0000   1.0000   1.0000   1.0000
     1.0000   1.0000   1.0000   1.0000   1.0000   1.0000   1.0000   1.0000
     1.0000   1.0000   1.0000   1.0000   1.0000   1.0000   1.0000   1.0000
     1.0000   1.0000   1.0000   1.0000   1.0000   1.0000   1.0000   1.0000
     1.0000   1.0000   1.0000   1.0000   1.0000   1.0000   1.0000   1.0000
     1.0000   1.0000   1.0000   1.0000   1.0000   1.0000   1.0000   1.0000
     1.0000   1.0000   1.0000   1.0000   1.0000   1.0000   1.0000   1.0000
     1.0000   1.0000   1.0000   1.0000   1.0000   1.0000   1.0000   1.0000
     1.0000   1.0000   1.0000   1.0000   1.0000   1.0000   1.0000   1.0000
     1.0000   1.0000   1.0000   1.0000   1.0000   1.0000   1.0000   1.0000
     1.0000   1.0000   1.0000   1.0000   1.0000   1.0000   1.0000   1.0000
     1.0000   1.0000   1.0000   1.0000   1.0000   1.0000   1.0000   1.0000
     1.0000   1.0000   1.0000   1.0000   1.0000   1.0000   1.0000   1.0000
     0.2504   0.2496   0.0000   0.0000   0.0000   0.0000   0.0000   0.0000
     0.0000   0.0000   0.0000   0.0000   0.0000   0.0000   0.0000   0.0000
     0.0000   0.0000   0.0000   0.0000   0.0000   0.0000

     the Fermi energy is    -0.6734 ev

!    total energy              =    -734.74002136 Ry
     Harris-Foulkes estimate   =    -734.74002157 Ry
     estimated scf accuracy    <       0.00000019 Ry

     The total energy is the sum of the following terms:

     one-electron contribution =   -2502.13651332 Ry
     hartree contribution      =    1306.70121301 Ry
     xc contribution           =    -275.95228603 Ry
     ewald contribution        =     736.64817848 Ry
     smearing contrib. (-TS)   =      -0.00061350 Ry

     convergence has been achieved in  18 iterations

     Writing output data file gr-12.save/

     init_run     :     45.96s CPU     47.39s WALL (       1 calls)
     electrons    :   1192.77s CPU   1232.91s WALL (       1 calls)

     Called by init_run:
     wfcinit      :     23.80s CPU     24.00s WALL (       1 calls)
     wfcinit:atom :      0.04s CPU      0.05s WALL (       1 calls)
     wfcinit:wfcr :     23.57s CPU     23.72s WALL (       1 calls)
     potinit      :     10.18s CPU     10.68s WALL (       1 calls)
     hinit0       :      6.45s CPU      6.49s WALL (       1 calls)

     Called by electrons:
     c_bands      :    709.91s CPU    714.97s WALL (      18 calls)
     sum_band     :    245.64s CPU    259.22s WALL (      18 calls)
     v_of_rho     :    141.43s CPU    150.67s WALL (      19 calls)
     v_h          :      1.67s CPU      1.74s WALL (      19 calls)
     v_xc         :    139.75s CPU    148.93s WALL (      19 calls)
     newd         :     99.92s CPU    113.03s WALL (      19 calls)
     mix_rho      :      4.62s CPU      4.78s WALL (      18 calls)

     Called by c_bands:
     init_us_2    :      2.04s CPU      2.08s WALL (      37 calls)
     cegterg      :    705.19s CPU    710.23s WALL (      18 calls)

     Called by sum_band:
     sum_band:bec :      0.02s CPU      0.02s WALL (      18 calls)
     addusdens    :    153.99s CPU    166.83s WALL (      18 calls)

     Called by *egterg:
     h_psi        :    389.33s CPU    392.83s WALL (      76 calls)
     s_psi        :    126.73s CPU    127.10s WALL (      76 calls)
     g_psi        :      0.33s CPU      0.33s WALL (      57 calls)
     cdiaghg      :      5.32s CPU      5.32s WALL (      75 calls)
     cegterg:over :     79.46s CPU     79.50s WALL (      57 calls)
     cegterg:upda :     48.00s CPU     48.39s WALL (      57 calls)
     cegterg:last :     35.83s CPU     35.86s WALL (      18 calls)

     Called by h_psi:
     h_psi:pot    :    388.82s CPU    391.86s WALL (      76 calls)
     h_psi:calbec :    127.86s CPU    128.11s WALL (      76 calls)
     vloc_psi     :    133.31s CPU    135.76s WALL (      76 calls)
     add_vuspsi   :    127.64s CPU    127.99s WALL (      76 calls)

     General routines
     calbec       :    182.73s CPU    183.02s WALL (      94 calls)
     fft          :     79.48s CPU     83.04s WALL (    1195 calls)
     ffts         :      0.93s CPU      0.96s WALL (      37 calls)
     fftw         :    140.62s CPU    143.23s WALL (   12788 calls)
     interpolate  :      1.98s CPU      2.06s WALL (      19 calls)

     Parallel routines
     fft_scatt_xy :     43.12s CPU     43.58s WALL (   14020 calls)
     fft_scatt_yz :     65.85s CPU     70.14s WALL (   14020 calls)

     PWSCF        :  20m40.09s CPU  21m21.94s WALL


   This run was terminated on:   0:18:50  19Jul2022            

=------------------------------------------------------------------------------=
   JOB DONE.
=------------------------------------------------------------------------------=
