
     Program PWSCF v.6.4.1 starts on 18Jul2022 at 23:41: 1 

     This program is part of the open-source Quantum ESPRESSO suite
     for quantum simulation of materials; please cite
         "P. Giannozzi et al., J. Phys.:Condens. Matter 21 395502 (2009);
         "P. Giannozzi et al., J. Phys.:Condens. Matter 29 465901 (2017);
          URL http://www.quantum-espresso.org", 
     in publications or presentations arising from this work. More details at
     http://www.quantum-espresso.org/quote

     Parallel version (MPI), running on     6 processors

     MPI processes distributed on     1 nodes
     R & G space division:  proc/nbgrp/npool/nimage =       6
     Reading input from distance-2.4.in

     Current dimensions of program PWSCF are:
     Max number of different atomic species (ntypx) = 10
     Max number of k-points (npk) =  40000
     Max angular momentum in pseudopotentials (lmaxx) =  3

     IMPORTANT: XC functional enforced from input :
     Exchange-correlation      = RVV10 ( 1  4 13  4 3 0)
     Any further DFT definition will be discarded
     Please, verify this is what you really want

               file H.pbe-rrkjus.UPF: wavefunction(s)  1S renormalized
               file Cu.pbe-dn-rrkjus_psl.1.0.0.UPF: wavefunction(s)  3D renormalized

     Subspace diagonalization in iterative solution of the eigenvalue problem:
     a serial algorithm will be used


     Parallelization info
     --------------------
     sticks:   dense  smooth     PW     G-vecs:    dense   smooth      PW
     Min        3051    1746    432               270999   117096   14629
     Max        3053    1747    437               271001   117099   14630
     Sum       18313   10477   2611              1626001   702581   87777



     bravais-lattice index     =            4
     lattice parameter (alat)  =      23.2937  a.u.
     unit-cell volume          =    8879.8548 (a.u.)^3
     number of atoms/cell      =           52
     number of atomic types    =            3
     number of electrons       =       209.00
     number of Kohn-Sham states=          126
     kinetic-energy cutoff     =      70.0000  Ry
     charge density cutoff     =     490.0000  Ry
     convergence threshold     =      1.0E-06
     mixing beta               =       0.7000
     number of iterations used =            8  plain     mixing
     Exchange-correlation      = RVV10 ( 1  4 13  4 3 0)

     celldm(1)=  23.293684  celldm(2)=   0.000000  celldm(3)=   0.811261
     celldm(4)=   0.000000  celldm(5)=   0.000000  celldm(6)=   0.000000

     crystal axes: (cart. coord. in units of alat)
               a(1) = (   1.000000   0.000000   0.000000 )  
               a(2) = (  -0.500000   0.866025   0.000000 )  
               a(3) = (   0.000000   0.000000   0.811261 )  

     reciprocal axes: (cart. coord. in units 2 pi/alat)
               b(1) = (  1.000000  0.577350 -0.000000 )  
               b(2) = (  0.000000  1.154701  0.000000 )  
               b(3) = (  0.000000 -0.000000  1.232649 )  


     PseudoPot. # 1 for H  read from file:
     /home/cristian/Escritorio/Proyecto_Grafeno/pseudopotenciales/H.pbe-rrkjus.UPF
     MD5 check sum: 7cc9d459525c9a0585f487a71c3c9563
     Pseudo is Ultrasoft, Zval =  1.0
     Generated by new atomic code, or converted to UPF format
     Using radial grid of 1061 points,  2 beta functions with: 
                l(1) =   0
                l(2) =   0
     Q(r) pseudized with 0 coefficients 


     PseudoPot. # 2 for C  read from file:
     /home/cristian/Escritorio/Proyecto_Grafeno/pseudopotenciales/C.pbe-n-rrkjus_psl.1.0.0.UPF
     MD5 check sum: 1fdd950c42eb37d8afe3dd2f8d12311e
     Pseudo is Ultrasoft + core correction, Zval =  4.0
     Generated using "atomic" code by A. Dal Corso v.6.3MaX
     Using radial grid of 1073 points,  4 beta functions with: 
                l(1) =   0
                l(2) =   0
                l(3) =   1
                l(4) =   1
     Q(r) pseudized with 0 coefficients 


     PseudoPot. # 3 for Cu read from file:
     /home/cristian/Escritorio/Proyecto_Grafeno/pseudopotenciales/Cu.pbe-dn-rrkjus_psl.1.0.0.UPF
     MD5 check sum: ba3d6c84e19846e79d48cdc68ff7152b
     Pseudo is Ultrasoft + core correction, Zval = 11.0
     Generated using "atomic" code by A. Dal Corso v.6.3
     Using radial grid of 1199 points,  6 beta functions with: 
                l(1) =   0
                l(2) =   0
                l(3) =   1
                l(4) =   1
                l(5) =   2
                l(6) =   2
     Q(r) pseudized with 0 coefficients 


     vdW kernel table read from file rVV10_kernel_table
     MD5 check sum: b8e2538accc0c0b3206b45ba4daaba6c

     atomic species   valence    mass     pseudopotential
        H              1.00     1.00794     H ( 1.00)
        C              4.00    12.01070     C ( 1.00)
        Cu            11.00    63.54600     Cu( 1.00)

      2 Sym. Ops. (no inversion) found


                                    s                        frac. trans.

      isym =  1     identity                                     

 cryst.   s( 1) = (     1          0          0      )
                  (     0          1          0      )
                  (     0          0          1      )

 cart.    s( 1) = (  1.0000000  0.0000000  0.0000000 )
                  (  0.0000000  1.0000000  0.0000000 )
                  (  0.0000000  0.0000000  1.0000000 )


      isym =  2     inv. 180 deg rotation - cryst. axis [1,1,0]  

 cryst.   s( 2) = (     0         -1          0      )
                  (    -1          0          0      )
                  (     0          0          1      )

 cart.    s( 2) = (  0.5000000 -0.8660254  0.0000000 )
                  ( -0.8660254 -0.5000000  0.0000000 )
                  (  0.0000000  0.0000000  1.0000000 )


     point group C_s (m)    
     there are  2 classes
     the character table:

       E     s    
A'     1.00  1.00
A''    1.00 -1.00

     the symmetry operations in each class and the name of the first element:

     E        1
          identity                                               
     s        2
          inv. 180 deg rotation - cryst. axis [1,1,0]            

   Cartesian axes

     site n.     atom                  positions (alat units)
         1           H   tau(   1) = (   0.2000000   0.4618802   0.1947027  )
         2           H   tau(   2) = (   0.2000000   0.4618802   0.2557154  )
         3           C   tau(   3) = (   0.0000000   0.0000000   0.0000000  )
         4           C   tau(   4) = (   0.0000000   0.1154701   0.0000000  )
         5           C   tau(   5) = (  -0.1000000   0.1732051   0.0000000  )
         6           C   tau(   6) = (  -0.1000000   0.2886751   0.0000000  )
         7           C   tau(   7) = (  -0.2000000   0.3464102   0.0000000  )
         8           C   tau(   8) = (  -0.2000000   0.4618802   0.0000000  )
         9           C   tau(   9) = (  -0.3000000   0.5196152   0.0000000  )
        10           C   tau(  10) = (  -0.3000000   0.6350853   0.0000000  )
        11           C   tau(  11) = (  -0.4000000   0.6928203   0.0000000  )
        12           C   tau(  12) = (  -0.4000000   0.8082904   0.0000000  )
        13           C   tau(  13) = (   0.2000000   0.0000000   0.0000000  )
        14           C   tau(  14) = (   0.2000000   0.1154701   0.0000000  )
        15           C   tau(  15) = (   0.1000000   0.1732051   0.0000000  )
        16           C   tau(  16) = (   0.1000000   0.2886751   0.0000000  )
        17           C   tau(  17) = (   0.0000000   0.3464102   0.0000000  )
        18           C   tau(  18) = (   0.0000000   0.4618802   0.0000000  )
        19           C   tau(  19) = (  -0.1000000   0.5196152   0.0000000  )
        20           C   tau(  20) = (  -0.1000000   0.6350853   0.0000000  )
        21           C   tau(  21) = (  -0.2000000   0.6928203   0.0000000  )
        22           C   tau(  22) = (  -0.2000000   0.8082904   0.0000000  )
        23           C   tau(  23) = (   0.4000000   0.0000000   0.0000000  )
        24           C   tau(  24) = (   0.4000000   0.1154701   0.0000000  )
        25           C   tau(  25) = (   0.3000000   0.1732051   0.0000000  )
        26           C   tau(  26) = (   0.3000000   0.2886751   0.0000000  )
        27           C   tau(  27) = (   0.2000000   0.3464102   0.0000000  )
        28           Cu  tau(  28) = (   0.2000000   0.4618802   0.0000000  )
        29           C   tau(  29) = (   0.1000000   0.5196152   0.0000000  )
        30           C   tau(  30) = (   0.1000000   0.6350853   0.0000000  )
        31           C   tau(  31) = (   0.0000000   0.6928203   0.0000000  )
        32           C   tau(  32) = (   0.0000000   0.8082904   0.0000000  )
        33           C   tau(  33) = (   0.6000000   0.0000000   0.0000000  )
        34           C   tau(  34) = (   0.6000000   0.1154701   0.0000000  )
        35           C   tau(  35) = (   0.5000000   0.1732051   0.0000000  )
        36           C   tau(  36) = (   0.5000000   0.2886751   0.0000000  )
        37           C   tau(  37) = (   0.4000000   0.3464102   0.0000000  )
        38           C   tau(  38) = (   0.4000000   0.4618802   0.0000000  )
        39           C   tau(  39) = (   0.3000000   0.5196152   0.0000000  )
        40           C   tau(  40) = (   0.3000000   0.6350853   0.0000000  )
        41           C   tau(  41) = (   0.2000000   0.6928203   0.0000000  )
        42           C   tau(  42) = (   0.2000000   0.8082904   0.0000000  )
        43           C   tau(  43) = (   0.8000000   0.0000000   0.0000000  )
        44           C   tau(  44) = (   0.8000000   0.1154701   0.0000000  )
        45           C   tau(  45) = (   0.7000000   0.1732051   0.0000000  )
        46           C   tau(  46) = (   0.7000000   0.2886751   0.0000000  )
        47           C   tau(  47) = (   0.6000000   0.3464102   0.0000000  )
        48           C   tau(  48) = (   0.6000000   0.4618802   0.0000000  )
        49           C   tau(  49) = (   0.5000000   0.5196152   0.0000000  )
        50           C   tau(  50) = (   0.5000000   0.6350853   0.0000000  )
        51           C   tau(  51) = (   0.4000000   0.6928203   0.0000000  )
        52           C   tau(  52) = (   0.4000000   0.8082904   0.0000000  )

   Crystallographic axes

     site n.     atom                  positions (cryst. coord.)
         1           H   tau(   1) = (  0.4666667  0.5333333  0.2400000  )
         2           H   tau(   2) = (  0.4666667  0.5333333  0.3152072  )
         3           C   tau(   3) = (  0.0000000  0.0000000  0.0000000  )
         4           C   tau(   4) = (  0.0666667  0.1333333  0.0000000  )
         5           C   tau(   5) = (  0.0000000  0.2000000  0.0000000  )
         6           C   tau(   6) = (  0.0666667  0.3333333  0.0000000  )
         7           C   tau(   7) = (  0.0000000  0.4000000  0.0000000  )
         8           C   tau(   8) = (  0.0666667  0.5333333  0.0000000  )
         9           C   tau(   9) = (  0.0000000  0.6000000  0.0000000  )
        10           C   tau(  10) = (  0.0666667  0.7333333  0.0000000  )
        11           C   tau(  11) = (  0.0000000  0.8000000  0.0000000  )
        12           C   tau(  12) = (  0.0666667  0.9333333  0.0000000  )
        13           C   tau(  13) = (  0.2000000  0.0000000  0.0000000  )
        14           C   tau(  14) = (  0.2666667  0.1333333  0.0000000  )
        15           C   tau(  15) = (  0.2000000  0.2000000  0.0000000  )
        16           C   tau(  16) = (  0.2666667  0.3333333  0.0000000  )
        17           C   tau(  17) = (  0.2000000  0.4000000  0.0000000  )
        18           C   tau(  18) = (  0.2666667  0.5333333  0.0000000  )
        19           C   tau(  19) = (  0.2000000  0.6000000  0.0000000  )
        20           C   tau(  20) = (  0.2666667  0.7333333  0.0000000  )
        21           C   tau(  21) = (  0.2000000  0.8000000  0.0000000  )
        22           C   tau(  22) = (  0.2666667  0.9333333  0.0000000  )
        23           C   tau(  23) = (  0.4000000  0.0000000  0.0000000  )
        24           C   tau(  24) = (  0.4666667  0.1333333  0.0000000  )
        25           C   tau(  25) = (  0.4000000  0.2000000  0.0000000  )
        26           C   tau(  26) = (  0.4666667  0.3333333  0.0000000  )
        27           C   tau(  27) = (  0.4000000  0.4000000  0.0000000  )
        28           Cu  tau(  28) = (  0.4666667  0.5333333  0.0000000  )
        29           C   tau(  29) = (  0.4000000  0.6000000  0.0000000  )
        30           C   tau(  30) = (  0.4666667  0.7333333  0.0000000  )
        31           C   tau(  31) = (  0.4000000  0.8000000  0.0000000  )
        32           C   tau(  32) = (  0.4666667  0.9333333  0.0000000  )
        33           C   tau(  33) = (  0.6000000  0.0000000  0.0000000  )
        34           C   tau(  34) = (  0.6666667  0.1333333  0.0000000  )
        35           C   tau(  35) = (  0.6000000  0.2000000  0.0000000  )
        36           C   tau(  36) = (  0.6666667  0.3333333  0.0000000  )
        37           C   tau(  37) = (  0.6000000  0.4000000  0.0000000  )
        38           C   tau(  38) = (  0.6666667  0.5333333  0.0000000  )
        39           C   tau(  39) = (  0.6000000  0.6000000  0.0000000  )
        40           C   tau(  40) = (  0.6666667  0.7333333  0.0000000  )
        41           C   tau(  41) = (  0.6000000  0.8000000  0.0000000  )
        42           C   tau(  42) = (  0.6666667  0.9333333  0.0000000  )
        43           C   tau(  43) = (  0.8000000  0.0000000  0.0000000  )
        44           C   tau(  44) = (  0.8666667  0.1333333  0.0000000  )
        45           C   tau(  45) = (  0.8000000  0.2000000  0.0000000  )
        46           C   tau(  46) = (  0.8666667  0.3333333  0.0000000  )
        47           C   tau(  47) = (  0.8000000  0.4000000  0.0000000  )
        48           C   tau(  48) = (  0.8666667  0.5333333  0.0000000  )
        49           C   tau(  49) = (  0.8000000  0.6000000  0.0000000  )
        50           C   tau(  50) = (  0.8666667  0.7333333  0.0000000  )
        51           C   tau(  51) = (  0.8000000  0.8000000  0.0000000  )
        52           C   tau(  52) = (  0.8666667  0.9333333  0.0000000  )

     number of k points=     1  Marzari-Vanderbilt smearing, width (Ry)=  0.0010
                       cart. coord. in units 2pi/alat
        k(    1) = (   0.0000000   0.0000000   0.0000000), wk =   2.0000000

                       cryst. coord.
        k(    1) = (   0.0000000   0.0000000   0.0000000), wk =   2.0000000

     Dense  grid:  1626001 G-vectors     FFT dimensions: ( 180, 180, 135)

     Smooth grid:   702581 G-vectors     FFT dimensions: ( 125, 125, 108)

     Dynamical RAM for                 wfc:      28.14 MB

     Dynamical RAM for     wfc (w. buffer):      28.14 MB

     Dynamical RAM for           str. fact:      12.41 MB

     Dynamical RAM for           local pot:       0.00 MB

     Dynamical RAM for          nlocal pot:      92.46 MB

     Dynamical RAM for                qrad:      19.73 MB

     Dynamical RAM for          rho,v,vnew:      29.46 MB

     Dynamical RAM for               rhoin:       9.82 MB

     Dynamical RAM for            rho*nmix:      66.16 MB

     Dynamical RAM for           G-vectors:      16.40 MB

     Dynamical RAM for          h,s,v(r/c):      11.63 MB

     Dynamical RAM for          <psi|beta>:       0.80 MB

     Dynamical RAM for                 psi:     112.56 MB

     Dynamical RAM for                hpsi:     112.56 MB

     Dynamical RAM for                spsi:     112.56 MB

     Dynamical RAM for      wfcinit/wfcrot:      93.45 MB

     Dynamical RAM for           addusdens:     971.75 MB

     Estimated static dynamical RAM per process >     319.55 MB

     Estimated max dynamical RAM per process >       1.26 GB

     Estimated total dynamical RAM >       7.57 GB

     Check: negative core charge=   -0.000002

     Initial potential from superposition of free atoms

     starting charge  208.80532, renormalised to  209.00000

     negative rho (up, down):  6.555E-05 0.000E+00


---------------------------------------------------------------------------------
Carrying out rVV10 run using the following parameters:
Nqs =      20    Nr_points =    1024   r_max =   100.000
b_value =  6.30000    beta =  0.00901
     q_mesh =  0.00010000  0.00030000  0.00058939  0.00100810
               0.00161396  0.00249058  0.00375900  0.00559430
               0.00824984  0.01209221  0.01765183  0.02569619
               0.03733578  0.05417739  0.07854596  0.11380545
               0.16482331  0.23864234  0.34545298  0.50000000

Gradients computed in Reciprocal space

---------------------------------------------------------------------------------


     Starting wfcs are  207 randomized atomic wfcs

     total cpu time spent up to now is       49.6 secs

     Self-consistent Calculation

     iteration #  1     ecut=    70.00 Ry     beta= 0.70
     Davidson diagonalization with overlap
     ethr =  1.00E-02,  avg # of iterations =  2.0

     negative rho (up, down):  1.553E-04 0.000E+00

     total cpu time spent up to now is      120.8 secs

     total energy              =    -732.41393758 Ry
     Harris-Foulkes estimate   =    -737.59529246 Ry
     estimated scf accuracy    <       7.76558851 Ry

     iteration #  2     ecut=    70.00 Ry     beta= 0.70
     Davidson diagonalization with overlap
     ethr =  3.72E-03,  avg # of iterations =  5.0

     negative rho (up, down):  1.903E-04 0.000E+00

     total cpu time spent up to now is      190.3 secs

     total energy              =    -731.79057492 Ry
     Harris-Foulkes estimate   =    -737.41431019 Ry
     estimated scf accuracy    <      11.34826746 Ry

     iteration #  3     ecut=    70.00 Ry     beta= 0.70
     Davidson diagonalization with overlap
     ethr =  3.72E-03,  avg # of iterations =  7.0

     negative rho (up, down):  2.505E-04 0.000E+00

     total cpu time spent up to now is      251.4 secs

     total energy              =    -730.93016352 Ry
     Harris-Foulkes estimate   =    -736.22815233 Ry
     estimated scf accuracy    <      23.12961472 Ry

     iteration #  4     ecut=    70.00 Ry     beta= 0.70
     Davidson diagonalization with overlap
     ethr =  3.72E-03,  avg # of iterations =  3.0

     negative rho (up, down):  2.744E-04 0.000E+00

     total cpu time spent up to now is      311.8 secs

     total energy              =    -734.32541743 Ry
     Harris-Foulkes estimate   =    -735.34172423 Ry
     estimated scf accuracy    <       6.39311088 Ry

     iteration #  5     ecut=    70.00 Ry     beta= 0.70
     Davidson diagonalization with overlap
     ethr =  3.06E-03,  avg # of iterations =  1.0

     negative rho (up, down):  2.949E-04 0.000E+00

     total cpu time spent up to now is      367.0 secs

     total energy              =    -734.73627454 Ry
     Harris-Foulkes estimate   =    -734.85314456 Ry
     estimated scf accuracy    <       0.44478316 Ry

     iteration #  6     ecut=    70.00 Ry     beta= 0.70
     Davidson diagonalization with overlap
     ethr =  2.13E-04,  avg # of iterations =  8.0

     negative rho (up, down):  3.198E-04 0.000E+00

     total cpu time spent up to now is      430.7 secs

     total energy              =    -734.74742842 Ry
     Harris-Foulkes estimate   =    -734.77375113 Ry
     estimated scf accuracy    <       0.11866040 Ry

     iteration #  7     ecut=    70.00 Ry     beta= 0.70
     Davidson diagonalization with overlap
     ethr =  5.68E-05,  avg # of iterations = 14.0

     negative rho (up, down):  3.539E-04 0.000E+00

     total cpu time spent up to now is      494.1 secs

     total energy              =    -734.74755098 Ry
     Harris-Foulkes estimate   =    -734.77827118 Ry
     estimated scf accuracy    <       0.14834727 Ry

     iteration #  8     ecut=    70.00 Ry     beta= 0.70
     Davidson diagonalization with overlap
     ethr =  5.68E-05,  avg # of iterations =  2.0

     negative rho (up, down):  3.988E-04 0.000E+00

     total cpu time spent up to now is      547.2 secs

     total energy              =    -734.74731007 Ry
     Harris-Foulkes estimate   =    -734.75559677 Ry
     estimated scf accuracy    <       0.04699163 Ry

     iteration #  9     ecut=    70.00 Ry     beta= 0.70
     Davidson diagonalization with overlap
     ethr =  2.25E-05,  avg # of iterations =  3.0

     negative rho (up, down):  5.572E-04 0.000E+00

     total cpu time spent up to now is      601.2 secs

     total energy              =    -734.74487901 Ry
     Harris-Foulkes estimate   =    -734.75110851 Ry
     estimated scf accuracy    <       0.02544749 Ry

     iteration # 10     ecut=    70.00 Ry     beta= 0.70
     Davidson diagonalization with overlap
     ethr =  1.22E-05,  avg # of iterations =  3.0

     negative rho (up, down):  6.113E-04 0.000E+00

     total cpu time spent up to now is      656.2 secs

     total energy              =    -734.74699507 Ry
     Harris-Foulkes estimate   =    -734.74860829 Ry
     estimated scf accuracy    <       0.01993439 Ry

     iteration # 11     ecut=    70.00 Ry     beta= 0.70
     Davidson diagonalization with overlap
     ethr =  9.54E-06,  avg # of iterations =  1.0

     negative rho (up, down):  6.555E-04 0.000E+00

     total cpu time spent up to now is      710.5 secs

     total energy              =    -734.74750473 Ry
     Harris-Foulkes estimate   =    -734.74790848 Ry
     estimated scf accuracy    <       0.00405365 Ry

     iteration # 12     ecut=    70.00 Ry     beta= 0.70
     Davidson diagonalization with overlap
     ethr =  1.94E-06,  avg # of iterations =  6.0

     negative rho (up, down):  6.297E-04 0.000E+00

     total cpu time spent up to now is      766.1 secs

     total energy              =    -734.74756698 Ry
     Harris-Foulkes estimate   =    -734.74786990 Ry
     estimated scf accuracy    <       0.00491152 Ry

     iteration # 13     ecut=    70.00 Ry     beta= 0.70
     Davidson diagonalization with overlap
     ethr =  1.94E-06,  avg # of iterations =  1.0

     negative rho (up, down):  6.366E-04 0.000E+00

     total cpu time spent up to now is      820.3 secs

     total energy              =    -734.74763631 Ry
     Harris-Foulkes estimate   =    -734.74777970 Ry
     estimated scf accuracy    <       0.00160291 Ry

     iteration # 14     ecut=    70.00 Ry     beta= 0.70
     Davidson diagonalization with overlap
     ethr =  7.67E-07,  avg # of iterations =  2.0

     negative rho (up, down):  6.342E-04 0.000E+00

     total cpu time spent up to now is      875.6 secs

     total energy              =    -734.74767715 Ry
     Harris-Foulkes estimate   =    -734.74783036 Ry
     estimated scf accuracy    <       0.00202656 Ry

     iteration # 15     ecut=    70.00 Ry     beta= 0.70
     Davidson diagonalization with overlap
     ethr =  7.67E-07,  avg # of iterations =  2.0

     negative rho (up, down):  6.366E-04 0.000E+00

     total cpu time spent up to now is      928.8 secs

     total energy              =    -734.74774354 Ry
     Harris-Foulkes estimate   =    -734.74774525 Ry
     estimated scf accuracy    <       0.00001795 Ry

     iteration # 16     ecut=    70.00 Ry     beta= 0.70
     Davidson diagonalization with overlap
     ethr =  8.59E-09,  avg # of iterations =  3.0

     negative rho (up, down):  6.390E-04 0.000E+00

     total cpu time spent up to now is      986.4 secs

     End of self-consistent calculation

          k = 0.0000 0.0000 0.0000 ( 87777 PWs)   bands (ev):

   -19.8403 -18.9943 -18.9942 -18.9126 -18.9123 -18.8519 -18.7410 -17.1601
   -17.1600 -17.1363 -17.0901 -17.0899 -16.8054 -16.3218 -16.3218 -16.1847
   -16.1846 -16.1694 -15.7455 -14.3925 -14.3924 -14.1295 -14.0424 -14.0423
   -13.5692 -13.1664 -13.1664 -13.0858 -12.9316 -12.9315 -12.6129 -12.2741
   -12.2741 -11.7167 -11.6043 -11.6043 -11.1489 -10.8900 -10.8900  -9.5158
    -9.3671  -9.3670  -9.2512  -9.2413  -9.2413  -9.2299  -9.0524  -9.0524
    -9.0450  -9.0449  -8.9225  -8.7099  -8.7098  -7.9905  -7.8967  -7.8497
    -7.6523  -7.6522  -7.5380  -7.5380  -7.2078  -6.8524  -6.8521  -6.8484
    -6.8097  -6.7908  -6.7208  -6.7208  -6.6205  -6.6203  -6.5826  -6.5777
    -6.5777  -6.5309  -6.3908  -6.3907  -6.3498  -5.6123  -5.6122  -5.0317
    -4.9643  -4.8883  -4.8883  -4.8230  -4.7709  -4.7361  -4.7359  -4.5485
    -4.5484  -4.4463  -3.8609  -3.8609  -3.8178  -3.8178  -3.7941  -3.6435
    -3.6435  -3.3700  -1.8921  -1.8369  -1.8368  -1.7351  -1.7350  -1.2082
    -0.6616  -0.6616   0.9018   0.9380   0.9381   1.0919   1.0920   1.4873
     2.5640   2.7827   2.7828   2.8282   2.9282   2.9283   3.3758   3.6739
     3.6740   3.8069   3.8070   3.8249   3.9482   4.2930

     occupation numbers 
     1.0000   1.0000   1.0000   1.0000   1.0000   1.0000   1.0000   1.0000
     1.0000   1.0000   1.0000   1.0000   1.0000   1.0000   1.0000   1.0000
     1.0000   1.0000   1.0000   1.0000   1.0000   1.0000   1.0000   1.0000
     1.0000   1.0000   1.0000   1.0000   1.0000   1.0000   1.0000   1.0000
     1.0000   1.0000   1.0000   1.0000   1.0000   1.0000   1.0000   1.0000
     1.0000   1.0000   1.0000   1.0000   1.0000   1.0000   1.0000   1.0000
     1.0000   1.0000   1.0000   1.0000   1.0000   1.0000   1.0000   1.0000
     1.0000   1.0000   1.0000   1.0000   1.0000   1.0000   1.0000   1.0000
     1.0000   1.0000   1.0000   1.0000   1.0000   1.0000   1.0000   1.0000
     1.0000   1.0000   1.0000   1.0000   1.0000   1.0000   1.0000   1.0000
     1.0000   1.0000   1.0000   1.0000   1.0000   1.0000   1.0000   1.0000
     1.0000   1.0000   1.0000   1.0000   1.0000   1.0000   1.0000   1.0000
     1.0000   1.0000   1.0000   1.0000   1.0000   1.0000   1.0000   1.0000
     0.2507   0.2493   0.0000   0.0000   0.0000   0.0000   0.0000   0.0000
     0.0000   0.0000   0.0000   0.0000   0.0000   0.0000   0.0000   0.0000
     0.0000   0.0000   0.0000   0.0000   0.0000   0.0000

     the Fermi energy is    -0.6650 ev

!    total energy              =    -734.74774547 Ry
     Harris-Foulkes estimate   =    -734.74774629 Ry
     estimated scf accuracy    <       0.00000059 Ry

     The total energy is the sum of the following terms:

     one-electron contribution =   -2497.65447433 Ry
     hartree contribution      =    1304.47490101 Ry
     xc contribution           =    -275.93570665 Ry
     ewald contribution        =     734.36814800 Ry
     smearing contrib. (-TS)   =      -0.00061350 Ry

     convergence has been achieved in  16 iterations

     Writing output data file gr-12.save/

     init_run     :     47.09s CPU     48.48s WALL (       1 calls)
     electrons    :    907.88s CPU    936.92s WALL (       1 calls)

     Called by init_run:
     wfcinit      :     23.75s CPU     23.94s WALL (       1 calls)
     wfcinit:atom :      0.03s CPU      0.05s WALL (       1 calls)
     wfcinit:wfcr :     23.55s CPU     23.68s WALL (       1 calls)
     potinit      :     10.69s CPU     11.13s WALL (       1 calls)
     hinit0       :      7.10s CPU      7.14s WALL (       1 calls)

     Called by electrons:
     c_bands      :    538.76s CPU    542.23s WALL (      16 calls)
     sum_band     :    185.96s CPU    195.94s WALL (      16 calls)
     v_of_rho     :    111.48s CPU    118.18s WALL (      17 calls)
     v_h          :      1.32s CPU      1.35s WALL (      17 calls)
     v_xc         :    110.17s CPU    116.83s WALL (      17 calls)
     newd         :     78.14s CPU     88.02s WALL (      17 calls)
     mix_rho      :      3.36s CPU      3.41s WALL (      16 calls)

     Called by c_bands:
     init_us_2    :      1.56s CPU      1.60s WALL (      33 calls)
     cegterg      :    534.89s CPU    538.33s WALL (      16 calls)

     Called by sum_band:
     sum_band:bec :      0.01s CPU      0.01s WALL (      16 calls)
     addusdens    :    116.87s CPU    126.34s WALL (      16 calls)

     Called by *egterg:
     h_psi        :    294.52s CPU    296.88s WALL (      80 calls)
     s_psi        :     97.34s CPU     97.46s WALL (      80 calls)
     g_psi        :      0.28s CPU      0.28s WALL (      63 calls)
     cdiaghg      :      5.32s CPU      5.33s WALL (      79 calls)
     cegterg:over :     63.01s CPU     63.09s WALL (      63 calls)
     cegterg:upda :     37.45s CPU     37.74s WALL (      63 calls)
     cegterg:last :     27.89s CPU     27.92s WALL (      16 calls)

     Called by h_psi:
     h_psi:pot    :    294.16s CPU    296.17s WALL (      80 calls)
     h_psi:calbec :     97.96s CPU     98.08s WALL (      80 calls)
     vloc_psi     :     98.70s CPU    100.48s WALL (      80 calls)
     add_vuspsi   :     97.50s CPU     97.62s WALL (      80 calls)

     General routines
     calbec       :    139.51s CPU    139.68s WALL (      96 calls)
     fft          :     62.81s CPU     65.20s WALL (    1069 calls)
     ffts         :      0.70s CPU      0.72s WALL (      33 calls)
     fftw         :    104.51s CPU    106.43s WALL (   11496 calls)
     interpolate  :      1.61s CPU      1.65s WALL (      17 calls)

     Parallel routines
     fft_scatt_xy :     30.36s CPU     30.70s WALL (   12598 calls)
     fft_scatt_yz :     53.03s CPU     56.11s WALL (   12598 calls)

     PWSCF        :  15m56.21s CPU  16m26.88s WALL


   This run was terminated on:  23:57:28  18Jul2022            

=------------------------------------------------------------------------------=
   JOB DONE.
=------------------------------------------------------------------------------=
