
     Program PWSCF v.6.4.1 starts on 10Aug2022 at 17:54: 0 

     This program is part of the open-source Quantum ESPRESSO suite
     for quantum simulation of materials; please cite
         "P. Giannozzi et al., J. Phys.:Condens. Matter 21 395502 (2009);
         "P. Giannozzi et al., J. Phys.:Condens. Matter 29 465901 (2017);
          URL http://www.quantum-espresso.org", 
     in publications or presentations arising from this work. More details at
     http://www.quantum-espresso.org/quote

     Parallel version (MPI), running on     6 processors

     MPI processes distributed on     1 nodes
     R & G space division:  proc/nbgrp/npool/nimage =       6
     Reading input from distance-1.8.in

     Current dimensions of program PWSCF are:
     Max number of different atomic species (ntypx) = 10
     Max number of k-points (npk) =  40000
     Max angular momentum in pseudopotentials (lmaxx) =  3

     IMPORTANT: XC functional enforced from input :
     Exchange-correlation      = RVV10 ( 1  4 13  4 3 0)
     Any further DFT definition will be discarded
     Please, verify this is what you really want

               file H.pbe-rrkjus.UPF: wavefunction(s)  1S renormalized
               file Mn.pbe-spn-rrkjus_psl.0.3.1.UPF: wavefunction(s)  3D renormalized

     Subspace diagonalization in iterative solution of the eigenvalue problem:
     a serial algorithm will be used


     Parallelization info
     --------------------
     sticks:   dense  smooth     PW     G-vecs:    dense   smooth      PW
     Min        3051    1746    432               270999   117096   14629
     Max        3053    1747    437               271001   117099   14630
     Sum       18313   10477   2611              1626001   702581   87777



     bravais-lattice index     =            4
     lattice parameter (alat)  =      23.2937  a.u.
     unit-cell volume          =    8879.8548 (a.u.)^3
     number of atoms/cell      =           52
     number of atomic types    =            3
     number of electrons       =       213.00
     number of Kohn-Sham states=          128
     kinetic-energy cutoff     =      70.0000  Ry
     charge density cutoff     =     490.0000  Ry
     convergence threshold     =      1.0E-06
     mixing beta               =       0.7000
     number of iterations used =            8  plain     mixing
     Exchange-correlation      = RVV10 ( 1  4 13  4 3 0)

     celldm(1)=  23.293684  celldm(2)=   0.000000  celldm(3)=   0.811261
     celldm(4)=   0.000000  celldm(5)=   0.000000  celldm(6)=   0.000000

     crystal axes: (cart. coord. in units of alat)
               a(1) = (   1.000000   0.000000   0.000000 )  
               a(2) = (  -0.500000   0.866025   0.000000 )  
               a(3) = (   0.000000   0.000000   0.811261 )  

     reciprocal axes: (cart. coord. in units 2 pi/alat)
               b(1) = (  1.000000  0.577350 -0.000000 )  
               b(2) = (  0.000000  1.154701  0.000000 )  
               b(3) = (  0.000000 -0.000000  1.232649 )  


     PseudoPot. # 1 for H  read from file:
     /home/cristian/Escritorio/Proyecto_Grafeno/pseudopotenciales/H.pbe-rrkjus.UPF
     MD5 check sum: 7cc9d459525c9a0585f487a71c3c9563
     Pseudo is Ultrasoft, Zval =  1.0
     Generated by new atomic code, or converted to UPF format
     Using radial grid of 1061 points,  2 beta functions with: 
                l(1) =   0
                l(2) =   0
     Q(r) pseudized with 0 coefficients 


     PseudoPot. # 2 for C  read from file:
     /home/cristian/Escritorio/Proyecto_Grafeno/pseudopotenciales/C.pbe-n-rrkjus_psl.1.0.0.UPF
     MD5 check sum: 1fdd950c42eb37d8afe3dd2f8d12311e
     Pseudo is Ultrasoft + core correction, Zval =  4.0
     Generated using "atomic" code by A. Dal Corso v.6.3MaX
     Using radial grid of 1073 points,  4 beta functions with: 
                l(1) =   0
                l(2) =   0
                l(3) =   1
                l(4) =   1
     Q(r) pseudized with 0 coefficients 


     PseudoPot. # 3 for Mn read from file:
     /home/cristian/Escritorio/Proyecto_Grafeno/pseudopotenciales/Mn.pbe-spn-rrkjus_psl.0.3.1.UPF
     MD5 check sum: e1cac159bdd2ba70c18e85765a5d4279
     Pseudo is Ultrasoft + core correction, Zval = 15.0
     Generated using "atomic" code by A. Dal Corso v.6.2.2
     Using radial grid of 1187 points,  6 beta functions with: 
                l(1) =   0
                l(2) =   0
                l(3) =   1
                l(4) =   1
                l(5) =   2
                l(6) =   2
     Q(r) pseudized with 0 coefficients 


     vdW kernel table read from file rVV10_kernel_table
     MD5 check sum: b8e2538accc0c0b3206b45ba4daaba6c

     atomic species   valence    mass     pseudopotential
        H              1.00     1.00794     H ( 1.00)
        C              4.00    12.01070     C ( 1.00)
        Mn            15.00    54.93804     Mn( 1.00)

     Starting magnetic structure 
     atomic species   magnetization
        H            0.500
        C            0.300
        Mn           0.800

      2 Sym. Ops. (no inversion) found


                                    s                        frac. trans.

      isym =  1     identity                                     

 cryst.   s( 1) = (     1          0          0      )
                  (     0          1          0      )
                  (     0          0          1      )

 cart.    s( 1) = (  1.0000000  0.0000000  0.0000000 )
                  (  0.0000000  1.0000000  0.0000000 )
                  (  0.0000000  0.0000000  1.0000000 )


      isym =  2     inv. 180 deg rotation - cryst. axis [1,1,0]  

 cryst.   s( 2) = (     0         -1          0      )
                  (    -1          0          0      )
                  (     0          0          1      )

 cart.    s( 2) = (  0.5000000 -0.8660254  0.0000000 )
                  ( -0.8660254 -0.5000000  0.0000000 )
                  (  0.0000000  0.0000000  1.0000000 )


     point group C_s (m)    
     there are  2 classes
     the character table:

       E     s    
A'     1.00  1.00
A''    1.00 -1.00

     the symmetry operations in each class and the name of the first element:

     E        1
          identity                                               
     s        2
          inv. 180 deg rotation - cryst. axis [1,1,0]            

   Cartesian axes

     site n.     atom                  positions (alat units)
         1           H   tau(   1) = (   0.3000000   0.4041452   0.1460270  )
         2           H   tau(   2) = (   0.3000000   0.4041452   0.2070397  )
         3           C   tau(   3) = (   0.0000000   0.0000000   0.0000000  )
         4           C   tau(   4) = (   0.0000000   0.1154701   0.0000000  )
         5           C   tau(   5) = (  -0.1000000   0.1732051   0.0000000  )
         6           C   tau(   6) = (  -0.1000000   0.2886751   0.0000000  )
         7           C   tau(   7) = (  -0.2000000   0.3464102   0.0000000  )
         8           C   tau(   8) = (  -0.2000000   0.4618802   0.0000000  )
         9           C   tau(   9) = (  -0.3000000   0.5196152   0.0000000  )
        10           C   tau(  10) = (  -0.3000000   0.6350853   0.0000000  )
        11           C   tau(  11) = (  -0.4000000   0.6928203   0.0000000  )
        12           C   tau(  12) = (  -0.4000000   0.8082904   0.0000000  )
        13           C   tau(  13) = (   0.2000000   0.0000000   0.0000000  )
        14           C   tau(  14) = (   0.2000000   0.1154701   0.0000000  )
        15           C   tau(  15) = (   0.1000000   0.1732051   0.0000000  )
        16           C   tau(  16) = (   0.1000000   0.2886751   0.0000000  )
        17           C   tau(  17) = (   0.0000000   0.3464102   0.0000000  )
        18           C   tau(  18) = (   0.0000000   0.4618802   0.0000000  )
        19           C   tau(  19) = (  -0.1000000   0.5196152   0.0000000  )
        20           C   tau(  20) = (  -0.1000000   0.6350853   0.0000000  )
        21           C   tau(  21) = (  -0.2000000   0.6928203   0.0000000  )
        22           C   tau(  22) = (  -0.2000000   0.8082904   0.0000000  )
        23           C   tau(  23) = (   0.4000000   0.0000000   0.0000000  )
        24           C   tau(  24) = (   0.4000000   0.1154701   0.0000000  )
        25           C   tau(  25) = (   0.3000000   0.1732051   0.0000000  )
        26           C   tau(  26) = (   0.3000000   0.2886751   0.0000000  )
        27           C   tau(  27) = (   0.2000000   0.3464102   0.0000000  )
        28           Mn  tau(  28) = (   0.2000000   0.4618802   0.0000000  )
        29           C   tau(  29) = (   0.1000000   0.5196152   0.0000000  )
        30           C   tau(  30) = (   0.1000000   0.6350853   0.0000000  )
        31           C   tau(  31) = (   0.0000000   0.6928203   0.0000000  )
        32           C   tau(  32) = (   0.0000000   0.8082904   0.0000000  )
        33           C   tau(  33) = (   0.6000000   0.0000000   0.0000000  )
        34           C   tau(  34) = (   0.6000000   0.1154701   0.0000000  )
        35           C   tau(  35) = (   0.5000000   0.1732051   0.0000000  )
        36           C   tau(  36) = (   0.5000000   0.2886751   0.0000000  )
        37           C   tau(  37) = (   0.4000000   0.3464102   0.0000000  )
        38           C   tau(  38) = (   0.4000000   0.4618802   0.0000000  )
        39           C   tau(  39) = (   0.3000000   0.5196152   0.0000000  )
        40           C   tau(  40) = (   0.3000000   0.6350853   0.0000000  )
        41           C   tau(  41) = (   0.2000000   0.6928203   0.0000000  )
        42           C   tau(  42) = (   0.2000000   0.8082904   0.0000000  )
        43           C   tau(  43) = (   0.8000000   0.0000000   0.0000000  )
        44           C   tau(  44) = (   0.8000000   0.1154701   0.0000000  )
        45           C   tau(  45) = (   0.7000000   0.1732051   0.0000000  )
        46           C   tau(  46) = (   0.7000000   0.2886751   0.0000000  )
        47           C   tau(  47) = (   0.6000000   0.3464102   0.0000000  )
        48           C   tau(  48) = (   0.6000000   0.4618802   0.0000000  )
        49           C   tau(  49) = (   0.5000000   0.5196152   0.0000000  )
        50           C   tau(  50) = (   0.5000000   0.6350853   0.0000000  )
        51           C   tau(  51) = (   0.4000000   0.6928203   0.0000000  )
        52           C   tau(  52) = (   0.4000000   0.8082904   0.0000000  )

   Crystallographic axes

     site n.     atom                  positions (cryst. coord.)
         1           H   tau(   1) = (  0.5333333  0.4666667  0.1800000  )
         2           H   tau(   2) = (  0.5333333  0.4666667  0.2552072  )
         3           C   tau(   3) = (  0.0000000  0.0000000  0.0000000  )
         4           C   tau(   4) = (  0.0666667  0.1333333  0.0000000  )
         5           C   tau(   5) = (  0.0000000  0.2000000  0.0000000  )
         6           C   tau(   6) = (  0.0666667  0.3333333  0.0000000  )
         7           C   tau(   7) = (  0.0000000  0.4000000  0.0000000  )
         8           C   tau(   8) = (  0.0666667  0.5333333  0.0000000  )
         9           C   tau(   9) = (  0.0000000  0.6000000  0.0000000  )
        10           C   tau(  10) = (  0.0666667  0.7333333  0.0000000  )
        11           C   tau(  11) = (  0.0000000  0.8000000  0.0000000  )
        12           C   tau(  12) = (  0.0666667  0.9333333  0.0000000  )
        13           C   tau(  13) = (  0.2000000  0.0000000  0.0000000  )
        14           C   tau(  14) = (  0.2666667  0.1333333  0.0000000  )
        15           C   tau(  15) = (  0.2000000  0.2000000  0.0000000  )
        16           C   tau(  16) = (  0.2666667  0.3333333  0.0000000  )
        17           C   tau(  17) = (  0.2000000  0.4000000  0.0000000  )
        18           C   tau(  18) = (  0.2666667  0.5333333  0.0000000  )
        19           C   tau(  19) = (  0.2000000  0.6000000  0.0000000  )
        20           C   tau(  20) = (  0.2666667  0.7333333  0.0000000  )
        21           C   tau(  21) = (  0.2000000  0.8000000  0.0000000  )
        22           C   tau(  22) = (  0.2666667  0.9333333  0.0000000  )
        23           C   tau(  23) = (  0.4000000  0.0000000  0.0000000  )
        24           C   tau(  24) = (  0.4666667  0.1333333  0.0000000  )
        25           C   tau(  25) = (  0.4000000  0.2000000  0.0000000  )
        26           C   tau(  26) = (  0.4666667  0.3333333  0.0000000  )
        27           C   tau(  27) = (  0.4000000  0.4000000  0.0000000  )
        28           Mn  tau(  28) = (  0.4666667  0.5333333  0.0000000  )
        29           C   tau(  29) = (  0.4000000  0.6000000  0.0000000  )
        30           C   tau(  30) = (  0.4666667  0.7333333  0.0000000  )
        31           C   tau(  31) = (  0.4000000  0.8000000  0.0000000  )
        32           C   tau(  32) = (  0.4666667  0.9333333  0.0000000  )
        33           C   tau(  33) = (  0.6000000  0.0000000  0.0000000  )
        34           C   tau(  34) = (  0.6666667  0.1333333  0.0000000  )
        35           C   tau(  35) = (  0.6000000  0.2000000  0.0000000  )
        36           C   tau(  36) = (  0.6666667  0.3333333  0.0000000  )
        37           C   tau(  37) = (  0.6000000  0.4000000  0.0000000  )
        38           C   tau(  38) = (  0.6666667  0.5333333  0.0000000  )
        39           C   tau(  39) = (  0.6000000  0.6000000  0.0000000  )
        40           C   tau(  40) = (  0.6666667  0.7333333  0.0000000  )
        41           C   tau(  41) = (  0.6000000  0.8000000  0.0000000  )
        42           C   tau(  42) = (  0.6666667  0.9333333  0.0000000  )
        43           C   tau(  43) = (  0.8000000  0.0000000  0.0000000  )
        44           C   tau(  44) = (  0.8666667  0.1333333  0.0000000  )
        45           C   tau(  45) = (  0.8000000  0.2000000  0.0000000  )
        46           C   tau(  46) = (  0.8666667  0.3333333  0.0000000  )
        47           C   tau(  47) = (  0.8000000  0.4000000  0.0000000  )
        48           C   tau(  48) = (  0.8666667  0.5333333  0.0000000  )
        49           C   tau(  49) = (  0.8000000  0.6000000  0.0000000  )
        50           C   tau(  50) = (  0.8666667  0.7333333  0.0000000  )
        51           C   tau(  51) = (  0.8000000  0.8000000  0.0000000  )
        52           C   tau(  52) = (  0.8666667  0.9333333  0.0000000  )

     number of k points=     1  Marzari-Vanderbilt smearing, width (Ry)=  0.0010
                       cart. coord. in units 2pi/alat
        k(    1) = (   0.0000000   0.0000000   0.0000000), wk =   1.0000000

                       cryst. coord.
        k(    1) = (   0.0000000   0.0000000   0.0000000), wk =   1.0000000

     Dense  grid:  1626001 G-vectors     FFT dimensions: ( 180, 180, 135)

     Smooth grid:   702581 G-vectors     FFT dimensions: ( 125, 125, 108)

     Dynamical RAM for                 wfc:      28.59 MB

     Dynamical RAM for     wfc (w. buffer):      85.76 MB

     Dynamical RAM for           str. fact:      12.41 MB

     Dynamical RAM for           local pot:       0.00 MB

     Dynamical RAM for          nlocal pot:      92.46 MB

     Dynamical RAM for                qrad:      19.73 MB

     Dynamical RAM for          rho,v,vnew:      58.92 MB

     Dynamical RAM for               rhoin:      19.64 MB

     Dynamical RAM for            rho*nmix:     132.32 MB

     Dynamical RAM for           G-vectors:      16.40 MB

     Dynamical RAM for          h,s,v(r/c):      12.00 MB

     Dynamical RAM for          <psi|beta>:       0.81 MB

     Dynamical RAM for                 psi:     114.35 MB

     Dynamical RAM for                hpsi:     114.35 MB

     Dynamical RAM for                spsi:     114.35 MB

     Dynamical RAM for      wfcinit/wfcrot:      93.90 MB

     Dynamical RAM for           addusdens:     975.89 MB

     Estimated static dynamical RAM per process >     488.30 MB

     Estimated max dynamical RAM per process >       1.43 GB

     Estimated total dynamical RAM >       8.58 GB
     Generating pointlists ...
     new r_m :   0.0252 (alat units)  0.5862 (a.u.) for type    1
     new r_m :   0.0476 (alat units)  1.1095 (a.u.) for type    2
     new r_m :   0.0476 (alat units)  1.1095 (a.u.) for type    3

     Check: negative core charge=   -0.000002

     Initial potential from superposition of free atoms

     starting charge  212.80506, renormalised to  213.00000

     negative rho (up, down):  7.749E-05 1.224E-02


---------------------------------------------------------------------------------
Carrying out rVV10 run using the following parameters:
Nqs =      20    Nr_points =    1024   r_max =   100.000
b_value =  6.30000    beta =  0.00901
     q_mesh =  0.00010000  0.00030000  0.00058939  0.00100810
               0.00161396  0.00249058  0.00375900  0.00559430
               0.00824984  0.01209221  0.01765183  0.02569619
               0.03733578  0.05417739  0.07854596  0.11380545
               0.16482331  0.23864234  0.34545298  0.50000000

Gradients computed in Reciprocal space

---------------------------------------------------------------------------------


     Starting wfcs are  208 randomized atomic wfcs

     total cpu time spent up to now is       78.5 secs

     Self-consistent Calculation

     iteration #  1     ecut=    70.00 Ry     beta= 0.70
     Davidson diagonalization with overlap
     ethr =  1.00E-02,  avg # of iterations =  2.5

     negative rho (up, down):  1.620E-04 1.156E-02

     total cpu time spent up to now is      216.2 secs

     total energy              =    -821.41534915 Ry
     Harris-Foulkes estimate   =    -825.07544119 Ry
     estimated scf accuracy    <      11.99755564 Ry

     total magnetization       =     7.00 Bohr mag/cell
     absolute magnetization    =     7.39 Bohr mag/cell

     iteration #  2     ecut=    70.00 Ry     beta= 0.70
     Davidson diagonalization with overlap
     ethr =  5.63E-03,  avg # of iterations =  7.5

     negative rho (up, down):  1.950E-08 3.745E-02

     total cpu time spent up to now is      349.1 secs

     total energy              =    -810.79256063 Ry
     Harris-Foulkes estimate   =    -835.89200328 Ry
     estimated scf accuracy    <     105.31102258 Ry

     total magnetization       =     6.44 Bohr mag/cell
     absolute magnetization    =     6.51 Bohr mag/cell

     iteration #  3     ecut=    70.00 Ry     beta= 0.70
     Davidson diagonalization with overlap
     ethr =  5.63E-03,  avg # of iterations =  5.0

     negative rho (up, down):  0.000E+00 4.500E-02

     total cpu time spent up to now is      547.9 secs

     total energy              =    -823.61269515 Ry
     Harris-Foulkes estimate   =    -827.13072139 Ry
     estimated scf accuracy    <      18.68854733 Ry

     total magnetization       =     7.00 Bohr mag/cell
     absolute magnetization    =     7.06 Bohr mag/cell

     iteration #  4     ecut=    70.00 Ry     beta= 0.70
     Davidson diagonalization with overlap
     ethr =  5.63E-03,  avg # of iterations =  3.5

     negative rho (up, down):  1.878E-08 5.032E-02

     total cpu time spent up to now is      651.4 secs

     total energy              =    -825.00733875 Ry
     Harris-Foulkes estimate   =    -826.58159013 Ry
     estimated scf accuracy    <       5.72759934 Ry

     total magnetization       =     1.00 Bohr mag/cell
     absolute magnetization    =     1.74 Bohr mag/cell

     iteration #  5     ecut=    70.00 Ry     beta= 0.70
     Davidson diagonalization with overlap
     ethr =  2.69E-03,  avg # of iterations =  3.0

     negative rho (up, down):  6.796E-07 6.569E-02

     total cpu time spent up to now is      758.0 secs

     total energy              =    -825.70261521 Ry
     Harris-Foulkes estimate   =    -825.97702097 Ry
     estimated scf accuracy    <       1.14529908 Ry

     total magnetization       =     3.00 Bohr mag/cell
     absolute magnetization    =     3.24 Bohr mag/cell

     iteration #  6     ecut=    70.00 Ry     beta= 0.70
     Davidson diagonalization with overlap
     ethr =  5.38E-04,  avg # of iterations =  3.0

     negative rho (up, down):  4.314E-05 7.908E-02

     total cpu time spent up to now is      863.3 secs

     total energy              =    -825.87655581 Ry
     Harris-Foulkes estimate   =    -825.91073116 Ry
     estimated scf accuracy    <       0.12317108 Ry

     total magnetization       =     3.00 Bohr mag/cell
     absolute magnetization    =     3.30 Bohr mag/cell

     iteration #  7     ecut=    70.00 Ry     beta= 0.70
     Davidson diagonalization with overlap
     ethr =  5.78E-05,  avg # of iterations =  7.5

     negative rho (up, down):  1.234E-04 7.415E-02

     total cpu time spent up to now is      996.9 secs

     total energy              =    -825.86609078 Ry
     Harris-Foulkes estimate   =    -825.93174898 Ry
     estimated scf accuracy    <       0.25400093 Ry

     total magnetization       =     3.00 Bohr mag/cell
     absolute magnetization    =     3.26 Bohr mag/cell

     iteration #  8     ecut=    70.00 Ry     beta= 0.70
     Davidson diagonalization with overlap
     ethr =  5.78E-05,  avg # of iterations =  3.0

     negative rho (up, down):  2.273E-04 6.178E-02

     total cpu time spent up to now is     1108.6 secs

     total energy              =    -825.91213121 Ry
     Harris-Foulkes estimate   =    -825.91552790 Ry
     estimated scf accuracy    <       0.03469028 Ry

     total magnetization       =     3.00 Bohr mag/cell
     absolute magnetization    =     3.44 Bohr mag/cell

     iteration #  9     ecut=    70.00 Ry     beta= 0.70
     Davidson diagonalization with overlap
     ethr =  1.63E-05,  avg # of iterations =  2.5

     negative rho (up, down):  3.845E-04 4.057E-02

     total cpu time spent up to now is     1211.6 secs

     total energy              =    -825.91456939 Ry
     Harris-Foulkes estimate   =    -825.91557150 Ry
     estimated scf accuracy    <       0.01531905 Ry

     total magnetization       =     3.00 Bohr mag/cell
     absolute magnetization    =     3.55 Bohr mag/cell

     iteration # 10     ecut=    70.00 Ry     beta= 0.70
     Davidson diagonalization with overlap
     ethr =  7.19E-06,  avg # of iterations =  2.5

     negative rho (up, down):  5.507E-04 1.855E-02

     total cpu time spent up to now is     1313.2 secs

     total energy              =    -825.91635875 Ry
     Harris-Foulkes estimate   =    -825.91622269 Ry
     estimated scf accuracy    <       0.00367362 Ry

     total magnetization       =     3.00 Bohr mag/cell
     absolute magnetization    =     3.67 Bohr mag/cell

     iteration # 11     ecut=    70.00 Ry     beta= 0.70
     Davidson diagonalization with overlap
     ethr =  1.72E-06,  avg # of iterations =  6.0

     negative rho (up, down):  6.677E-04 9.610E-03

     total cpu time spent up to now is     1423.6 secs

     total energy              =    -825.91711698 Ry
     Harris-Foulkes estimate   =    -825.91689247 Ry
     estimated scf accuracy    <       0.00088931 Ry

     total magnetization       =     3.00 Bohr mag/cell
     absolute magnetization    =     3.82 Bohr mag/cell

     iteration # 12     ecut=    70.00 Ry     beta= 0.70
     Davidson diagonalization with overlap
     ethr =  4.18E-07,  avg # of iterations =  3.0

     negative rho (up, down):  6.649E-04 9.249E-03

     total cpu time spent up to now is     1535.2 secs

     total energy              =    -825.91739898 Ry
     Harris-Foulkes estimate   =    -825.91733992 Ry
     estimated scf accuracy    <       0.00029357 Ry

     total magnetization       =     3.00 Bohr mag/cell
     absolute magnetization    =     3.96 Bohr mag/cell

     iteration # 13     ecut=    70.00 Ry     beta= 0.70
     Davidson diagonalization with overlap
     ethr =  1.38E-07,  avg # of iterations =  3.0

     negative rho (up, down):  6.834E-04 9.269E-03

     total cpu time spent up to now is     1654.5 secs

     total energy              =    -825.91754601 Ry
     Harris-Foulkes estimate   =    -825.91752063 Ry
     estimated scf accuracy    <       0.00012609 Ry

     total magnetization       =     3.00 Bohr mag/cell
     absolute magnetization    =     4.06 Bohr mag/cell

     iteration # 14     ecut=    70.00 Ry     beta= 0.70
     Davidson diagonalization with overlap
     ethr =  5.92E-08,  avg # of iterations =  3.0

     negative rho (up, down):  6.794E-04 9.002E-03

     total cpu time spent up to now is     1770.4 secs

     total energy              =    -825.91762211 Ry
     Harris-Foulkes estimate   =    -825.91758596 Ry
     estimated scf accuracy    <       0.00004165 Ry

     total magnetization       =     3.00 Bohr mag/cell
     absolute magnetization    =     4.12 Bohr mag/cell

     iteration # 15     ecut=    70.00 Ry     beta= 0.70
     Davidson diagonalization with overlap
     ethr =  1.96E-08,  avg # of iterations =  3.0

     negative rho (up, down):  6.802E-04 9.006E-03

     total cpu time spent up to now is     1906.6 secs

     total energy              =    -825.91757885 Ry
     Harris-Foulkes estimate   =    -825.91757350 Ry
     estimated scf accuracy    <       0.00001610 Ry

     total magnetization       =     3.00 Bohr mag/cell
     absolute magnetization    =     4.21 Bohr mag/cell

     iteration # 16     ecut=    70.00 Ry     beta= 0.70
     Davidson diagonalization with overlap
     ethr =  7.56E-09,  avg # of iterations =  3.0

     negative rho (up, down):  6.738E-04 9.027E-03

     total cpu time spent up to now is     2042.1 secs

     total energy              =    -825.91759104 Ry
     Harris-Foulkes estimate   =    -825.91759019 Ry
     estimated scf accuracy    <       0.00000989 Ry

     total magnetization       =     3.00 Bohr mag/cell
     absolute magnetization    =     4.26 Bohr mag/cell

     iteration # 17     ecut=    70.00 Ry     beta= 0.70
     Davidson diagonalization with overlap
     ethr =  4.64E-09,  avg # of iterations =  3.0

     negative rho (up, down):  6.713E-04 9.070E-03

     total cpu time spent up to now is     2154.8 secs

     total energy              =    -825.91759541 Ry
     Harris-Foulkes estimate   =    -825.91759421 Ry
     estimated scf accuracy    <       0.00000291 Ry

     total magnetization       =     3.00 Bohr mag/cell
     absolute magnetization    =     4.27 Bohr mag/cell

     iteration # 18     ecut=    70.00 Ry     beta= 0.70
     Davidson diagonalization with overlap
     ethr =  1.36E-09,  avg # of iterations =  3.0

     negative rho (up, down):  6.718E-04 9.088E-03

     Magnetic moment per site:
     atom:    1    charge:    0.2136    magn:   -0.0001    constr:    0.0000
     atom:    2    charge:    0.2144    magn:    0.0069    constr:    0.0000
     atom:    3    charge:    1.7170    magn:   -0.0126    constr:    0.0000
     atom:    4    charge:    1.7156    magn:    0.0178    constr:    0.0000
     atom:    5    charge:    1.7176    magn:   -0.0095    constr:    0.0000
     atom:    6    charge:    1.7143    magn:    0.0061    constr:    0.0000
     atom:    7    charge:    1.7177    magn:   -0.0095    constr:    0.0000
     atom:    8    charge:    1.7156    magn:    0.0178    constr:    0.0000
     atom:    9    charge:    1.7170    magn:   -0.0125    constr:    0.0000
     atom:   10    charge:    1.7154    magn:    0.0573    constr:    0.0000
     atom:   11    charge:    1.7174    magn:   -0.0178    constr:    0.0000
     atom:   12    charge:    1.7154    magn:    0.0573    constr:    0.0000
     atom:   13    charge:    1.7174    magn:   -0.0178    constr:    0.0000
     atom:   14    charge:    1.7159    magn:    0.0457    constr:    0.0000
     atom:   15    charge:    1.7144    magn:   -0.0145    constr:    0.0000
     atom:   16    charge:    1.7121    magn:    0.0612    constr:    0.0000
     atom:   17    charge:    1.7236    magn:   -0.0138    constr:    0.0000
     atom:   18    charge:    1.7123    magn:    0.0617    constr:    0.0000
     atom:   19    charge:    1.7144    magn:   -0.0147    constr:    0.0000
     atom:   20    charge:    1.7158    magn:    0.0462    constr:    0.0000
     atom:   21    charge:    1.7175    magn:   -0.0178    constr:    0.0000
     atom:   22    charge:    1.7154    magn:    0.0573    constr:    0.0000
     atom:   23    charge:    1.7170    magn:   -0.0125    constr:    0.0000
     atom:   24    charge:    1.7155    magn:    0.0177    constr:    0.0000
     atom:   25    charge:    1.7141    magn:   -0.0143    constr:    0.0000
     atom:   26    charge:    1.7142    magn:    0.0601    constr:    0.0000
     atom:   27    charge:    1.8755    magn:   -0.0295    constr:    0.0000
     atom:   28    charge:   10.0225    magn:    0.7927    constr:    0.0000
     atom:   29    charge:    1.8737    magn:   -0.0295    constr:    0.0000
     atom:   30    charge:    1.7123    magn:    0.0617    constr:    0.0000
     atom:   31    charge:    1.7144    magn:   -0.0147    constr:    0.0000
     atom:   32    charge:    1.7156    magn:    0.0178    constr:    0.0000
     atom:   33    charge:    1.7177    magn:   -0.0095    constr:    0.0000
     atom:   34    charge:    1.7142    magn:    0.0124    constr:    0.0000
     atom:   35    charge:    1.7175    magn:   -0.0095    constr:    0.0000
     atom:   36    charge:    1.7141    magn:    0.0062    constr:    0.0000
     atom:   37    charge:    1.7245    magn:   -0.0140    constr:    0.0000
     atom:   38    charge:    1.7142    magn:    0.0601    constr:    0.0000
     atom:   39    charge:    1.8755    magn:   -0.0295    constr:    0.0000
     atom:   40    charge:    1.7121    magn:    0.0612    constr:    0.0000
     atom:   41    charge:    1.7236    magn:   -0.0138    constr:    0.0000
     atom:   42    charge:    1.7143    magn:    0.0061    constr:    0.0000
     atom:   43    charge:    1.7176    magn:   -0.0095    constr:    0.0000
     atom:   44    charge:    1.7142    magn:    0.0123    constr:    0.0000
     atom:   45    charge:    1.7231    magn:   -0.0066    constr:    0.0000
     atom:   46    charge:    1.7142    magn:    0.0124    constr:    0.0000
     atom:   47    charge:    1.7175    magn:   -0.0095    constr:    0.0000
     atom:   48    charge:    1.7155    magn:    0.0177    constr:    0.0000
     atom:   49    charge:    1.7141    magn:   -0.0143    constr:    0.0000
     atom:   50    charge:    1.7159    magn:    0.0457    constr:    0.0000
     atom:   51    charge:    1.7144    magn:   -0.0145    constr:    0.0000
     atom:   52    charge:    1.7156    magn:    0.0178    constr:    0.0000

     total cpu time spent up to now is     2288.9 secs

     End of self-consistent calculation

 ------ SPIN UP ------------


          k = 0.0000 0.0000 0.0000 ( 87777 PWs)   bands (ev):

   -80.7102 -50.2193 -50.2156 -49.1282 -19.7858 -18.9497 -18.9473 -18.8589
   -18.8428 -18.8355 -18.5004 -17.0898 -17.0855 -17.0800 -17.0098 -17.0002
   -16.6928 -16.2429 -16.2417 -16.1342 -16.0791 -16.0711 -15.3763 -14.1337
   -14.1304 -14.0644 -13.9992 -13.9980 -13.3342 -13.0791 -13.0717 -13.0461
   -12.7513 -12.7417 -12.3281 -11.8525 -11.8518 -11.6698 -11.3981 -11.3902
   -10.4834  -9.6875  -9.6836  -9.4467  -9.3317  -9.3264  -9.2324  -9.2066
    -9.2053  -9.1914  -8.7085  -8.7012  -8.1845  -8.1744  -8.1350  -8.0435
    -7.8392  -7.6594  -7.4337  -7.4258  -7.2082  -7.2022  -6.9773  -6.9257
    -6.9246  -6.8389  -6.8326  -6.7419  -6.7210  -6.5715  -6.5684  -6.5390
    -6.5297  -6.5286  -6.4847  -6.0532  -5.6600  -5.5442  -5.5300  -5.4887
    -5.3282  -5.3266  -5.0342  -4.9891  -4.8901  -4.7577  -4.7369  -4.6970
    -4.3633  -4.2397  -4.2388  -4.2228  -4.2210  -3.8984  -3.8716  -3.7921
    -3.6762  -3.6758  -3.1198  -2.7694  -2.7629  -1.9118  -1.8112  -1.8096
    -1.3091  -1.1333  -1.1228  -0.8665   0.8885   0.9496   0.9580   1.5555
     1.5579   1.5742   2.4810   2.7434   2.7479   2.8385   2.9819   3.0082
     3.4499   3.4652   3.4724   3.6664   3.7137   3.7236   3.7429   3.7463

     occupation numbers 
     1.0000   1.0000   1.0000   1.0000   1.0000   1.0000   1.0000   1.0000
     1.0000   1.0000   1.0000   1.0000   1.0000   1.0000   1.0000   1.0000
     1.0000   1.0000   1.0000   1.0000   1.0000   1.0000   1.0000   1.0000
     1.0000   1.0000   1.0000   1.0000   1.0000   1.0000   1.0000   1.0000
     1.0000   1.0000   1.0000   1.0000   1.0000   1.0000   1.0000   1.0000
     1.0000   1.0000   1.0000   1.0000   1.0000   1.0000   1.0000   1.0000
     1.0000   1.0000   1.0000   1.0000   1.0000   1.0000   1.0000   1.0000
     1.0000   1.0000   1.0000   1.0000   1.0000   1.0000   1.0000   1.0000
     1.0000   1.0000   1.0000   1.0000   1.0000   1.0000   1.0000   1.0000
     1.0000   1.0000   1.0000   1.0000   1.0000   1.0000   1.0000   1.0000
     1.0000   1.0000   1.0000   1.0000   1.0000   1.0000   1.0000   1.0000
     1.0000   1.0000   1.0000   1.0000   1.0000   1.0000   1.0000   1.0000
     1.0000   1.0000   1.0000   1.0000   1.0000   1.0000   1.0000   1.0000
     1.0000   1.0000   1.0000   1.0007   0.0000   0.0000   0.0000   0.0000
     0.0000   0.0000   0.0000   0.0000   0.0000   0.0000   0.0000   0.0000
     0.0000   0.0000   0.0000   0.0000   0.0000   0.0000   0.0000   0.0000

 ------ SPIN DOWN ----------


          k = 0.0000 0.0000 0.0000 ( 87777 PWs)   bands (ev):

   -79.3604 -49.1388 -49.1381 -47.3530 -19.7442 -18.9008 -18.8996 -18.8222
   -18.8160 -18.8088 -18.4361 -17.0526 -17.0509 -17.0482 -16.9539 -16.9446
   -16.6632 -16.1925 -16.1922 -16.1031 -16.0364 -16.0276 -15.3459 -14.0614
   -14.0568 -13.9962 -13.9890 -13.9877 -13.3405 -13.0530 -13.0455 -13.0136
   -12.7325 -12.7226 -12.2908 -11.8106 -11.8097 -11.6451 -11.3741 -11.3661
   -10.4456  -9.6193  -9.6156  -9.4163  -9.2969  -9.2916  -9.2163  -9.1820
    -9.1808  -9.1739  -8.6917  -8.6854  -8.1312  -8.1247  -8.0708  -7.9630
    -7.8213  -7.5346  -7.4175  -7.3908  -7.1453  -7.0126  -6.8692  -6.8638
    -6.8388  -6.7756  -6.7533  -6.7052  -6.6684  -6.5523  -6.5493  -6.5278
    -6.5170  -6.5153  -6.4672  -5.9202  -5.4925  -5.4899  -5.3744  -5.2521
    -5.2492  -5.2129  -4.9757  -4.8789  -4.6849  -4.6827  -4.6453  -4.6038
    -4.2875  -4.1094  -4.1084  -4.0149  -4.0116  -3.7625  -3.7346  -3.7042
    -3.6570  -3.6570  -3.0401  -2.5118  -2.5036  -1.7859  -1.7846  -1.7420
    -0.8358  -0.5331  -0.5275   0.0724   0.9939   0.9998   1.0441   1.7312
     1.7363   1.7377   2.5134   2.8779   2.8852   2.9091   3.2707   3.2940
     3.6157   3.6384   3.6536   3.7161   3.7382   3.7514   3.7553   3.7783

     occupation numbers 
     1.0000   1.0000   1.0000   1.0000   1.0000   1.0000   1.0000   1.0000
     1.0000   1.0000   1.0000   1.0000   1.0000   1.0000   1.0000   1.0000
     1.0000   1.0000   1.0000   1.0000   1.0000   1.0000   1.0000   1.0000
     1.0000   1.0000   1.0000   1.0000   1.0000   1.0000   1.0000   1.0000
     1.0000   1.0000   1.0000   1.0000   1.0000   1.0000   1.0000   1.0000
     1.0000   1.0000   1.0000   1.0000   1.0000   1.0000   1.0000   1.0000
     1.0000   1.0000   1.0000   1.0000   1.0000   1.0000   1.0000   1.0000
     1.0000   1.0000   1.0000   1.0000   1.0000   1.0000   1.0000   1.0000
     1.0000   1.0000   1.0000   1.0000   1.0000   1.0000   1.0000   1.0000
     1.0000   1.0000   1.0000   1.0000   1.0000   1.0000   1.0000   1.0000
     1.0000   1.0000   1.0000   1.0000   1.0000   1.0000   1.0000   1.0000
     1.0000   1.0000   1.0000   1.0000   1.0000   1.0000   1.0000   1.0000
     1.0000   1.0000   1.0000   1.0000   1.0000   1.0000   1.0000   1.0000
     0.9993   0.0000   0.0000   0.0000   0.0000   0.0000   0.0000   0.0000
     0.0000   0.0000   0.0000   0.0000   0.0000   0.0000   0.0000   0.0000
     0.0000   0.0000   0.0000   0.0000   0.0000   0.0000   0.0000   0.0000

     the Fermi energy is    -0.8233 ev

!    total energy              =    -825.91759758 Ry
     Harris-Foulkes estimate   =    -825.91759736 Ry
     estimated scf accuracy    <       0.00000071 Ry

     The total energy is the sum of the following terms:

     one-electron contribution =   -2741.72246120 Ry
     hartree contribution      =    1415.68137576 Ry
     xc contribution           =    -259.71448300 Ry
     ewald contribution        =     759.83788771 Ry
     smearing contrib. (-TS)   =       0.00008316 Ry

     total magnetization       =     3.00 Bohr mag/cell
     absolute magnetization    =     4.29 Bohr mag/cell

     convergence has been achieved in  18 iterations

     Writing output data file distance-1.8.save/

     init_run     :     75.63s CPU     77.19s WALL (       1 calls)
     electrons    :   2175.74s CPU   2210.57s WALL (       1 calls)

     Called by init_run:
     wfcinit      :     45.53s CPU     45.86s WALL (       1 calls)
     wfcinit:atom :      0.05s CPU      0.09s WALL (       2 calls)
     wfcinit:wfcr :     45.08s CPU     45.31s WALL (       2 calls)
     potinit      :     12.15s CPU     12.67s WALL (       1 calls)
     hinit0       :      8.57s CPU      8.61s WALL (       1 calls)

     Called by electrons:
     c_bands      :   1471.79s CPU   1479.95s WALL (      18 calls)
     sum_band     :    410.75s CPU    421.65s WALL (      18 calls)
     v_of_rho     :    147.54s CPU    154.34s WALL (      19 calls)
     v_h          :      1.57s CPU      1.60s WALL (      19 calls)
     v_xc         :    145.96s CPU    152.74s WALL (      19 calls)
     newd         :    148.28s CPU    158.07s WALL (      19 calls)
     mix_rho      :      8.35s CPU      8.47s WALL (      18 calls)

     Called by c_bands:
     init_us_2    :      3.61s CPU      3.66s WALL (      74 calls)
     cegterg      :   1462.72s CPU   1470.84s WALL (      36 calls)

     Called by sum_band:
     sum_band:bec :      0.03s CPU      0.03s WALL (      36 calls)
     addusdens    :    253.44s CPU    263.39s WALL (      18 calls)

     Called by *egterg:
     h_psi        :    756.80s CPU    762.56s WALL (     172 calls)
     s_psi        :    251.07s CPU    251.22s WALL (     172 calls)
     g_psi        :      0.84s CPU      0.84s WALL (     134 calls)
     cdiaghg      :     14.93s CPU     14.94s WALL (     170 calls)
     cegterg:over :    195.64s CPU    195.79s WALL (     134 calls)
     cegterg:upda :    129.07s CPU    129.84s WALL (     134 calls)
     cegterg:last :     86.55s CPU     86.60s WALL (      38 calls)

     Called by h_psi:
     h_psi:pot    :    755.98s CPU    760.82s WALL (     172 calls)
     h_psi:calbec :    251.20s CPU    251.36s WALL (     172 calls)
     vloc_psi     :    253.88s CPU    258.44s WALL (     172 calls)
     add_vuspsi   :    250.89s CPU    251.01s WALL (     172 calls)

     General routines
     calbec       :    344.98s CPU    345.19s WALL (     208 calls)
     fft          :     83.84s CPU     86.77s WALL (    1419 calls)
     ffts         :      1.56s CPU      1.61s WALL (      74 calls)
     fftw         :    261.22s CPU    265.75s WALL (   29414 calls)
     interpolate  :      3.60s CPU      3.70s WALL (      38 calls)

     Parallel routines
     fft_scatt_xy :     65.98s CPU     66.65s WALL (   30907 calls)
     fft_scatt_yz :    107.22s CPU    112.74s WALL (   30907 calls)

     PWSCF        :  37m32.90s CPU  38m 9.70s WALL


   This run was terminated on:  18:32:10  10Aug2022            

=------------------------------------------------------------------------------=
   JOB DONE.
=------------------------------------------------------------------------------=
