
     Program PWSCF v.6.4.1 starts on 10Aug2022 at 12:10:53 

     This program is part of the open-source Quantum ESPRESSO suite
     for quantum simulation of materials; please cite
         "P. Giannozzi et al., J. Phys.:Condens. Matter 21 395502 (2009);
         "P. Giannozzi et al., J. Phys.:Condens. Matter 29 465901 (2017);
          URL http://www.quantum-espresso.org", 
     in publications or presentations arising from this work. More details at
     http://www.quantum-espresso.org/quote

     Parallel version (MPI), running on     6 processors

     MPI processes distributed on     1 nodes
     R & G space division:  proc/nbgrp/npool/nimage =       6
     Reading input from distance-4.5.in

     Current dimensions of program PWSCF are:
     Max number of different atomic species (ntypx) = 10
     Max number of k-points (npk) =  40000
     Max angular momentum in pseudopotentials (lmaxx) =  3

     IMPORTANT: XC functional enforced from input :
     Exchange-correlation      = RVV10 ( 1  4 13  4 3 0)
     Any further DFT definition will be discarded
     Please, verify this is what you really want

               file H.pbe-rrkjus.UPF: wavefunction(s)  1S renormalized
               file Mn.pbe-spn-rrkjus_psl.0.3.1.UPF: wavefunction(s)  3D renormalized

     Subspace diagonalization in iterative solution of the eigenvalue problem:
     a serial algorithm will be used


     Parallelization info
     --------------------
     sticks:   dense  smooth     PW     G-vecs:    dense   smooth      PW
     Min        3051    1746    432               270999   117096   14629
     Max        3053    1747    437               271001   117099   14630
     Sum       18313   10477   2611              1626001   702581   87777



     bravais-lattice index     =            4
     lattice parameter (alat)  =      23.2937  a.u.
     unit-cell volume          =    8879.8548 (a.u.)^3
     number of atoms/cell      =           52
     number of atomic types    =            3
     number of electrons       =       213.00
     number of Kohn-Sham states=          128
     kinetic-energy cutoff     =      70.0000  Ry
     charge density cutoff     =     490.0000  Ry
     convergence threshold     =      1.0E-06
     mixing beta               =       0.7000
     number of iterations used =            8  plain     mixing
     Exchange-correlation      = RVV10 ( 1  4 13  4 3 0)

     celldm(1)=  23.293684  celldm(2)=   0.000000  celldm(3)=   0.811261
     celldm(4)=   0.000000  celldm(5)=   0.000000  celldm(6)=   0.000000

     crystal axes: (cart. coord. in units of alat)
               a(1) = (   1.000000   0.000000   0.000000 )  
               a(2) = (  -0.500000   0.866025   0.000000 )  
               a(3) = (   0.000000   0.000000   0.811261 )  

     reciprocal axes: (cart. coord. in units 2 pi/alat)
               b(1) = (  1.000000  0.577350 -0.000000 )  
               b(2) = (  0.000000  1.154701  0.000000 )  
               b(3) = (  0.000000 -0.000000  1.232649 )  


     PseudoPot. # 1 for H  read from file:
     /home/cristian/Escritorio/Proyecto_Grafeno/pseudopotenciales/H.pbe-rrkjus.UPF
     MD5 check sum: 7cc9d459525c9a0585f487a71c3c9563
     Pseudo is Ultrasoft, Zval =  1.0
     Generated by new atomic code, or converted to UPF format
     Using radial grid of 1061 points,  2 beta functions with: 
                l(1) =   0
                l(2) =   0
     Q(r) pseudized with 0 coefficients 


     PseudoPot. # 2 for C  read from file:
     /home/cristian/Escritorio/Proyecto_Grafeno/pseudopotenciales/C.pbe-n-rrkjus_psl.1.0.0.UPF
     MD5 check sum: 1fdd950c42eb37d8afe3dd2f8d12311e
     Pseudo is Ultrasoft + core correction, Zval =  4.0
     Generated using "atomic" code by A. Dal Corso v.6.3MaX
     Using radial grid of 1073 points,  4 beta functions with: 
                l(1) =   0
                l(2) =   0
                l(3) =   1
                l(4) =   1
     Q(r) pseudized with 0 coefficients 


     PseudoPot. # 3 for Mn read from file:
     /home/cristian/Escritorio/Proyecto_Grafeno/pseudopotenciales/Mn.pbe-spn-rrkjus_psl.0.3.1.UPF
     MD5 check sum: e1cac159bdd2ba70c18e85765a5d4279
     Pseudo is Ultrasoft + core correction, Zval = 15.0
     Generated using "atomic" code by A. Dal Corso v.6.2.2
     Using radial grid of 1187 points,  6 beta functions with: 
                l(1) =   0
                l(2) =   0
                l(3) =   1
                l(4) =   1
                l(5) =   2
                l(6) =   2
     Q(r) pseudized with 0 coefficients 


     vdW kernel table read from file rVV10_kernel_table
     MD5 check sum: b8e2538accc0c0b3206b45ba4daaba6c

     atomic species   valence    mass     pseudopotential
        H              1.00     1.00794     H ( 1.00)
        C              4.00    12.01070     C ( 1.00)
        Mn            15.00    54.93804     Mn( 1.00)

     Starting magnetic structure 
     atomic species   magnetization
        H            0.500
        C            0.300
        Mn           0.800

      2 Sym. Ops. (no inversion) found


                                    s                        frac. trans.

      isym =  1     identity                                     

 cryst.   s( 1) = (     1          0          0      )
                  (     0          1          0      )
                  (     0          0          1      )

 cart.    s( 1) = (  1.0000000  0.0000000  0.0000000 )
                  (  0.0000000  1.0000000  0.0000000 )
                  (  0.0000000  0.0000000  1.0000000 )


      isym =  2     inv. 180 deg rotation - cryst. axis [1,1,0]  

 cryst.   s( 2) = (     0         -1          0      )
                  (    -1          0          0      )
                  (     0          0          1      )

 cart.    s( 2) = (  0.5000000 -0.8660254  0.0000000 )
                  ( -0.8660254 -0.5000000  0.0000000 )
                  (  0.0000000  0.0000000  1.0000000 )


     point group C_s (m)    
     there are  2 classes
     the character table:

       E     s    
A'     1.00  1.00
A''    1.00 -1.00

     the symmetry operations in each class and the name of the first element:

     E        1
          identity                                               
     s        2
          inv. 180 deg rotation - cryst. axis [1,1,0]            

   Cartesian axes

     site n.     atom                  positions (alat units)
         1           H   tau(   1) = (   0.3000000   0.4041452   0.3650675  )
         2           H   tau(   2) = (   0.3000000   0.4041452   0.4260802  )
         3           C   tau(   3) = (   0.0000000   0.0000000   0.0000000  )
         4           C   tau(   4) = (   0.0000000   0.1154701   0.0000000  )
         5           C   tau(   5) = (  -0.1000000   0.1732051   0.0000000  )
         6           C   tau(   6) = (  -0.1000000   0.2886751   0.0000000  )
         7           C   tau(   7) = (  -0.2000000   0.3464102   0.0000000  )
         8           C   tau(   8) = (  -0.2000000   0.4618802   0.0000000  )
         9           C   tau(   9) = (  -0.3000000   0.5196152   0.0000000  )
        10           C   tau(  10) = (  -0.3000000   0.6350853   0.0000000  )
        11           C   tau(  11) = (  -0.4000000   0.6928203   0.0000000  )
        12           C   tau(  12) = (  -0.4000000   0.8082904   0.0000000  )
        13           C   tau(  13) = (   0.2000000   0.0000000   0.0000000  )
        14           C   tau(  14) = (   0.2000000   0.1154701   0.0000000  )
        15           C   tau(  15) = (   0.1000000   0.1732051   0.0000000  )
        16           C   tau(  16) = (   0.1000000   0.2886751   0.0000000  )
        17           C   tau(  17) = (   0.0000000   0.3464102   0.0000000  )
        18           C   tau(  18) = (   0.0000000   0.4618802   0.0000000  )
        19           C   tau(  19) = (  -0.1000000   0.5196152   0.0000000  )
        20           C   tau(  20) = (  -0.1000000   0.6350853   0.0000000  )
        21           C   tau(  21) = (  -0.2000000   0.6928203   0.0000000  )
        22           C   tau(  22) = (  -0.2000000   0.8082904   0.0000000  )
        23           C   tau(  23) = (   0.4000000   0.0000000   0.0000000  )
        24           C   tau(  24) = (   0.4000000   0.1154701   0.0000000  )
        25           C   tau(  25) = (   0.3000000   0.1732051   0.0000000  )
        26           C   tau(  26) = (   0.3000000   0.2886751   0.0000000  )
        27           C   tau(  27) = (   0.2000000   0.3464102   0.0000000  )
        28           Mn  tau(  28) = (   0.2000000   0.4618802   0.0000000  )
        29           C   tau(  29) = (   0.1000000   0.5196152   0.0000000  )
        30           C   tau(  30) = (   0.1000000   0.6350853   0.0000000  )
        31           C   tau(  31) = (   0.0000000   0.6928203   0.0000000  )
        32           C   tau(  32) = (   0.0000000   0.8082904   0.0000000  )
        33           C   tau(  33) = (   0.6000000   0.0000000   0.0000000  )
        34           C   tau(  34) = (   0.6000000   0.1154701   0.0000000  )
        35           C   tau(  35) = (   0.5000000   0.1732051   0.0000000  )
        36           C   tau(  36) = (   0.5000000   0.2886751   0.0000000  )
        37           C   tau(  37) = (   0.4000000   0.3464102   0.0000000  )
        38           C   tau(  38) = (   0.4000000   0.4618802   0.0000000  )
        39           C   tau(  39) = (   0.3000000   0.5196152   0.0000000  )
        40           C   tau(  40) = (   0.3000000   0.6350853   0.0000000  )
        41           C   tau(  41) = (   0.2000000   0.6928203   0.0000000  )
        42           C   tau(  42) = (   0.2000000   0.8082904   0.0000000  )
        43           C   tau(  43) = (   0.8000000   0.0000000   0.0000000  )
        44           C   tau(  44) = (   0.8000000   0.1154701   0.0000000  )
        45           C   tau(  45) = (   0.7000000   0.1732051   0.0000000  )
        46           C   tau(  46) = (   0.7000000   0.2886751   0.0000000  )
        47           C   tau(  47) = (   0.6000000   0.3464102   0.0000000  )
        48           C   tau(  48) = (   0.6000000   0.4618802   0.0000000  )
        49           C   tau(  49) = (   0.5000000   0.5196152   0.0000000  )
        50           C   tau(  50) = (   0.5000000   0.6350853   0.0000000  )
        51           C   tau(  51) = (   0.4000000   0.6928203   0.0000000  )
        52           C   tau(  52) = (   0.4000000   0.8082904   0.0000000  )

   Crystallographic axes

     site n.     atom                  positions (cryst. coord.)
         1           H   tau(   1) = (  0.5333333  0.4666667  0.4500000  )
         2           H   tau(   2) = (  0.5333333  0.4666667  0.5252072  )
         3           C   tau(   3) = (  0.0000000  0.0000000  0.0000000  )
         4           C   tau(   4) = (  0.0666667  0.1333333  0.0000000  )
         5           C   tau(   5) = (  0.0000000  0.2000000  0.0000000  )
         6           C   tau(   6) = (  0.0666667  0.3333333  0.0000000  )
         7           C   tau(   7) = (  0.0000000  0.4000000  0.0000000  )
         8           C   tau(   8) = (  0.0666667  0.5333333  0.0000000  )
         9           C   tau(   9) = (  0.0000000  0.6000000  0.0000000  )
        10           C   tau(  10) = (  0.0666667  0.7333333  0.0000000  )
        11           C   tau(  11) = (  0.0000000  0.8000000  0.0000000  )
        12           C   tau(  12) = (  0.0666667  0.9333333  0.0000000  )
        13           C   tau(  13) = (  0.2000000  0.0000000  0.0000000  )
        14           C   tau(  14) = (  0.2666667  0.1333333  0.0000000  )
        15           C   tau(  15) = (  0.2000000  0.2000000  0.0000000  )
        16           C   tau(  16) = (  0.2666667  0.3333333  0.0000000  )
        17           C   tau(  17) = (  0.2000000  0.4000000  0.0000000  )
        18           C   tau(  18) = (  0.2666667  0.5333333  0.0000000  )
        19           C   tau(  19) = (  0.2000000  0.6000000  0.0000000  )
        20           C   tau(  20) = (  0.2666667  0.7333333  0.0000000  )
        21           C   tau(  21) = (  0.2000000  0.8000000  0.0000000  )
        22           C   tau(  22) = (  0.2666667  0.9333333  0.0000000  )
        23           C   tau(  23) = (  0.4000000  0.0000000  0.0000000  )
        24           C   tau(  24) = (  0.4666667  0.1333333  0.0000000  )
        25           C   tau(  25) = (  0.4000000  0.2000000  0.0000000  )
        26           C   tau(  26) = (  0.4666667  0.3333333  0.0000000  )
        27           C   tau(  27) = (  0.4000000  0.4000000  0.0000000  )
        28           Mn  tau(  28) = (  0.4666667  0.5333333  0.0000000  )
        29           C   tau(  29) = (  0.4000000  0.6000000  0.0000000  )
        30           C   tau(  30) = (  0.4666667  0.7333333  0.0000000  )
        31           C   tau(  31) = (  0.4000000  0.8000000  0.0000000  )
        32           C   tau(  32) = (  0.4666667  0.9333333  0.0000000  )
        33           C   tau(  33) = (  0.6000000  0.0000000  0.0000000  )
        34           C   tau(  34) = (  0.6666667  0.1333333  0.0000000  )
        35           C   tau(  35) = (  0.6000000  0.2000000  0.0000000  )
        36           C   tau(  36) = (  0.6666667  0.3333333  0.0000000  )
        37           C   tau(  37) = (  0.6000000  0.4000000  0.0000000  )
        38           C   tau(  38) = (  0.6666667  0.5333333  0.0000000  )
        39           C   tau(  39) = (  0.6000000  0.6000000  0.0000000  )
        40           C   tau(  40) = (  0.6666667  0.7333333  0.0000000  )
        41           C   tau(  41) = (  0.6000000  0.8000000  0.0000000  )
        42           C   tau(  42) = (  0.6666667  0.9333333  0.0000000  )
        43           C   tau(  43) = (  0.8000000  0.0000000  0.0000000  )
        44           C   tau(  44) = (  0.8666667  0.1333333  0.0000000  )
        45           C   tau(  45) = (  0.8000000  0.2000000  0.0000000  )
        46           C   tau(  46) = (  0.8666667  0.3333333  0.0000000  )
        47           C   tau(  47) = (  0.8000000  0.4000000  0.0000000  )
        48           C   tau(  48) = (  0.8666667  0.5333333  0.0000000  )
        49           C   tau(  49) = (  0.8000000  0.6000000  0.0000000  )
        50           C   tau(  50) = (  0.8666667  0.7333333  0.0000000  )
        51           C   tau(  51) = (  0.8000000  0.8000000  0.0000000  )
        52           C   tau(  52) = (  0.8666667  0.9333333  0.0000000  )

     number of k points=     1  Marzari-Vanderbilt smearing, width (Ry)=  0.0010
                       cart. coord. in units 2pi/alat
        k(    1) = (   0.0000000   0.0000000   0.0000000), wk =   1.0000000

                       cryst. coord.
        k(    1) = (   0.0000000   0.0000000   0.0000000), wk =   1.0000000

     Dense  grid:  1626001 G-vectors     FFT dimensions: ( 180, 180, 135)

     Smooth grid:   702581 G-vectors     FFT dimensions: ( 125, 125, 108)

     Dynamical RAM for                 wfc:      28.59 MB

     Dynamical RAM for     wfc (w. buffer):      85.76 MB

     Dynamical RAM for           str. fact:      12.41 MB

     Dynamical RAM for           local pot:       0.00 MB

     Dynamical RAM for          nlocal pot:      92.46 MB

     Dynamical RAM for                qrad:      19.73 MB

     Dynamical RAM for          rho,v,vnew:      58.92 MB

     Dynamical RAM for               rhoin:      19.64 MB

     Dynamical RAM for            rho*nmix:     132.32 MB

     Dynamical RAM for           G-vectors:      16.40 MB

     Dynamical RAM for          h,s,v(r/c):      12.00 MB

     Dynamical RAM for          <psi|beta>:       0.81 MB

     Dynamical RAM for                 psi:     114.35 MB

     Dynamical RAM for                hpsi:     114.35 MB

     Dynamical RAM for                spsi:     114.35 MB

     Dynamical RAM for      wfcinit/wfcrot:      93.90 MB

     Dynamical RAM for           addusdens:     975.89 MB

     Estimated static dynamical RAM per process >     488.30 MB

     Estimated max dynamical RAM per process >       1.43 GB

     Estimated total dynamical RAM >       8.58 GB
     Generating pointlists ...
     new r_m :   0.0252 (alat units)  0.5862 (a.u.) for type    1
     new r_m :   0.0476 (alat units)  1.1095 (a.u.) for type    2
     new r_m :   0.0476 (alat units)  1.1095 (a.u.) for type    3

     Check: negative core charge=   -0.000002

     Initial potential from superposition of free atoms

     starting charge  212.80506, renormalised to  213.00000

     negative rho (up, down):  7.720E-05 8.838E-03


---------------------------------------------------------------------------------
Carrying out rVV10 run using the following parameters:
Nqs =      20    Nr_points =    1024   r_max =   100.000
b_value =  6.30000    beta =  0.00901
     q_mesh =  0.00010000  0.00030000  0.00058939  0.00100810
               0.00161396  0.00249058  0.00375900  0.00559430
               0.00824984  0.01209221  0.01765183  0.02569619
               0.03733578  0.05417739  0.07854596  0.11380545
               0.16482331  0.23864234  0.34545298  0.50000000

Gradients computed in Reciprocal space

---------------------------------------------------------------------------------


     Starting wfcs are  208 randomized atomic wfcs

     total cpu time spent up to now is       88.9 secs

     Self-consistent Calculation

     iteration #  1     ecut=    70.00 Ry     beta= 0.70
     Davidson diagonalization with overlap
     ethr =  1.00E-02,  avg # of iterations =  3.5

     negative rho (up, down):  1.285E-04 8.369E-03

     total cpu time spent up to now is      254.3 secs

     total energy              =    -823.55632134 Ry
     Harris-Foulkes estimate   =    -824.90467628 Ry
     estimated scf accuracy    <       9.69265295 Ry

     total magnetization       =     5.00 Bohr mag/cell
     absolute magnetization    =     5.88 Bohr mag/cell

     iteration #  2     ecut=    70.00 Ry     beta= 0.70
     Davidson diagonalization with overlap
     ethr =  4.55E-03,  avg # of iterations =  6.0

     negative rho (up, down):  1.541E-04 7.931E-03

     total cpu time spent up to now is      393.6 secs

     total energy              =    -818.81523407 Ry
     Harris-Foulkes estimate   =    -826.98688779 Ry
     estimated scf accuracy    <      20.79632467 Ry

     total magnetization       =     6.96 Bohr mag/cell
     absolute magnetization    =     7.01 Bohr mag/cell

     iteration #  3     ecut=    70.00 Ry     beta= 0.70
     Davidson diagonalization with overlap
     ethr =  4.55E-03,  avg # of iterations =  4.0

     negative rho (up, down):  2.105E-04 5.558E-03

     total cpu time spent up to now is      569.9 secs

     total energy              =    -822.37174004 Ry
     Harris-Foulkes estimate   =    -830.41631394 Ry
     estimated scf accuracy    <      48.19957978 Ry

     total magnetization       =     1.00 Bohr mag/cell
     absolute magnetization    =     1.50 Bohr mag/cell

     iteration #  4     ecut=    70.00 Ry     beta= 0.70
     Davidson diagonalization with overlap
     ethr =  4.55E-03,  avg # of iterations =  3.5

     negative rho (up, down):  2.402E-04 1.050E-02

     total cpu time spent up to now is      686.3 secs

     total energy              =    -825.73917503 Ry
     Harris-Foulkes estimate   =    -826.00717247 Ry
     estimated scf accuracy    <       0.68028059 Ry

     total magnetization       =     3.00 Bohr mag/cell
     absolute magnetization    =     3.42 Bohr mag/cell

     iteration #  5     ecut=    70.00 Ry     beta= 0.70
     Davidson diagonalization with overlap
     ethr =  3.19E-04,  avg # of iterations =  5.5

     negative rho (up, down):  2.828E-04 1.603E-02

     total cpu time spent up to now is      828.7 secs

     total energy              =    -825.77854673 Ry
     Harris-Foulkes estimate   =    -825.99042802 Ry
     estimated scf accuracy    <       1.09474969 Ry

     total magnetization       =     3.00 Bohr mag/cell
     absolute magnetization    =     3.21 Bohr mag/cell

     iteration #  6     ecut=    70.00 Ry     beta= 0.70
     Davidson diagonalization with overlap
     ethr =  3.19E-04,  avg # of iterations =  3.5

     negative rho (up, down):  6.027E-04 6.926E-03

     total cpu time spent up to now is      941.7 secs

     total energy              =    -825.91515773 Ry
     Harris-Foulkes estimate   =    -825.96164068 Ry
     estimated scf accuracy    <       0.18168629 Ry

     total magnetization       =     3.00 Bohr mag/cell
     absolute magnetization    =     3.43 Bohr mag/cell

     iteration #  7     ecut=    70.00 Ry     beta= 0.70
     Davidson diagonalization with overlap
     ethr =  8.53E-05,  avg # of iterations =  3.5

     negative rho (up, down):  6.416E-04 8.281E-03

     total cpu time spent up to now is     1061.2 secs

     total energy              =    -825.93633019 Ry
     Harris-Foulkes estimate   =    -825.94661129 Ry
     estimated scf accuracy    <       0.04939398 Ry

     total magnetization       =     3.00 Bohr mag/cell
     absolute magnetization    =     3.60 Bohr mag/cell

     iteration #  8     ecut=    70.00 Ry     beta= 0.70
     Davidson diagonalization with overlap
     ethr =  2.32E-05,  avg # of iterations =  2.5

     negative rho (up, down):  6.008E-04 6.437E-03

     total cpu time spent up to now is     1177.0 secs

     total energy              =    -825.93920336 Ry
     Harris-Foulkes estimate   =    -825.94199126 Ry
     estimated scf accuracy    <       0.02278568 Ry

     total magnetization       =     3.00 Bohr mag/cell
     absolute magnetization    =     3.69 Bohr mag/cell

     iteration #  9     ecut=    70.00 Ry     beta= 0.70
     Davidson diagonalization with overlap
     ethr =  1.07E-05,  avg # of iterations = 13.5

     negative rho (up, down):  5.725E-04 6.099E-03

     total cpu time spent up to now is     1299.7 secs

     total energy              =    -825.94075914 Ry
     Harris-Foulkes estimate   =    -825.94103020 Ry
     estimated scf accuracy    <       0.00636689 Ry

     total magnetization       =     3.00 Bohr mag/cell
     absolute magnetization    =     3.76 Bohr mag/cell

     iteration # 10     ecut=    70.00 Ry     beta= 0.70
     Davidson diagonalization with overlap
     ethr =  2.99E-06,  avg # of iterations =  3.5

     negative rho (up, down):  5.639E-04 6.475E-03

     total cpu time spent up to now is     1410.2 secs

     total energy              =    -825.94149877 Ry
     Harris-Foulkes estimate   =    -825.94135338 Ry
     estimated scf accuracy    <       0.00152297 Ry

     total magnetization       =     3.00 Bohr mag/cell
     absolute magnetization    =     3.88 Bohr mag/cell

     iteration # 11     ecut=    70.00 Ry     beta= 0.70
     Davidson diagonalization with overlap
     ethr =  7.15E-07,  avg # of iterations =  4.0

     negative rho (up, down):  5.649E-04 6.608E-03

     total cpu time spent up to now is     1530.4 secs

     total energy              =    -825.94182170 Ry
     Harris-Foulkes estimate   =    -825.94173977 Ry
     estimated scf accuracy    <       0.00026588 Ry

     total magnetization       =     3.00 Bohr mag/cell
     absolute magnetization    =     4.01 Bohr mag/cell

     iteration # 12     ecut=    70.00 Ry     beta= 0.70
     Davidson diagonalization with overlap
     ethr =  1.25E-07,  avg # of iterations =  3.0

     negative rho (up, down):  5.648E-04 6.638E-03

     total cpu time spent up to now is     1660.2 secs

     total energy              =    -825.94192971 Ry
     Harris-Foulkes estimate   =    -825.94192580 Ry
     estimated scf accuracy    <       0.00012436 Ry

     total magnetization       =     3.00 Bohr mag/cell
     absolute magnetization    =     4.11 Bohr mag/cell

     iteration # 13     ecut=    70.00 Ry     beta= 0.70
     Davidson diagonalization with overlap
     ethr =  5.84E-08,  avg # of iterations =  3.0

     negative rho (up, down):  5.699E-04 6.553E-03

     total cpu time spent up to now is     1804.7 secs

     total energy              =    -825.94198475 Ry
     Harris-Foulkes estimate   =    -825.94198656 Ry
     estimated scf accuracy    <       0.00005320 Ry

     total magnetization       =     3.00 Bohr mag/cell
     absolute magnetization    =     4.19 Bohr mag/cell

     iteration # 14     ecut=    70.00 Ry     beta= 0.70
     Davidson diagonalization with overlap
     ethr =  2.50E-08,  avg # of iterations =  3.0

     negative rho (up, down):  5.729E-04 6.477E-03

     total cpu time spent up to now is     1931.3 secs

     total energy              =    -825.94200734 Ry
     Harris-Foulkes estimate   =    -825.94199568 Ry
     estimated scf accuracy    <       0.00000674 Ry

     total magnetization       =     3.00 Bohr mag/cell
     absolute magnetization    =     4.21 Bohr mag/cell

     iteration # 15     ecut=    70.00 Ry     beta= 0.70
     Davidson diagonalization with overlap
     ethr =  3.16E-09,  avg # of iterations =  3.5

     negative rho (up, down):  5.727E-04 6.502E-03

     total cpu time spent up to now is     2085.3 secs

     total energy              =    -825.94201976 Ry
     Harris-Foulkes estimate   =    -825.94201689 Ry
     estimated scf accuracy    <       0.00000294 Ry

     total magnetization       =     3.00 Bohr mag/cell
     absolute magnetization    =     4.27 Bohr mag/cell

     iteration # 16     ecut=    70.00 Ry     beta= 0.70
     Davidson diagonalization with overlap
     ethr =  1.38E-09,  avg # of iterations =  3.5

     negative rho (up, down):  5.728E-04 6.511E-03

     total cpu time spent up to now is     2240.5 secs

     total energy              =    -825.94202309 Ry
     Harris-Foulkes estimate   =    -825.94202240 Ry
     estimated scf accuracy    <       0.00000135 Ry

     total magnetization       =     3.00 Bohr mag/cell
     absolute magnetization    =     4.29 Bohr mag/cell

     iteration # 17     ecut=    70.00 Ry     beta= 0.70
     Davidson diagonalization with overlap
     ethr =  6.35E-10,  avg # of iterations =  4.0

     negative rho (up, down):  5.722E-04 6.542E-03

     Magnetic moment per site:
     atom:    1    charge:    0.2114    magn:    0.0000    constr:    0.0000
     atom:    2    charge:    0.2112    magn:    0.0001    constr:    0.0000
     atom:    3    charge:    1.7169    magn:   -0.0128    constr:    0.0000
     atom:    4    charge:    1.7155    magn:    0.0180    constr:    0.0000
     atom:    5    charge:    1.7176    magn:   -0.0098    constr:    0.0000
     atom:    6    charge:    1.7142    magn:    0.0063    constr:    0.0000
     atom:    7    charge:    1.7176    magn:   -0.0098    constr:    0.0000
     atom:    8    charge:    1.7156    magn:    0.0180    constr:    0.0000
     atom:    9    charge:    1.7170    magn:   -0.0128    constr:    0.0000
     atom:   10    charge:    1.7155    magn:    0.0576    constr:    0.0000
     atom:   11    charge:    1.7174    magn:   -0.0180    constr:    0.0000
     atom:   12    charge:    1.7154    magn:    0.0576    constr:    0.0000
     atom:   13    charge:    1.7174    magn:   -0.0180    constr:    0.0000
     atom:   14    charge:    1.7159    magn:    0.0461    constr:    0.0000
     atom:   15    charge:    1.7144    magn:   -0.0148    constr:    0.0000
     atom:   16    charge:    1.7124    magn:    0.0616    constr:    0.0000
     atom:   17    charge:    1.7235    magn:   -0.0141    constr:    0.0000
     atom:   18    charge:    1.7124    magn:    0.0616    constr:    0.0000
     atom:   19    charge:    1.7144    magn:   -0.0148    constr:    0.0000
     atom:   20    charge:    1.7159    magn:    0.0461    constr:    0.0000
     atom:   21    charge:    1.7175    magn:   -0.0180    constr:    0.0000
     atom:   22    charge:    1.7155    magn:    0.0576    constr:    0.0000
     atom:   23    charge:    1.7170    magn:   -0.0128    constr:    0.0000
     atom:   24    charge:    1.7156    magn:    0.0180    constr:    0.0000
     atom:   25    charge:    1.7144    magn:   -0.0147    constr:    0.0000
     atom:   26    charge:    1.7125    magn:    0.0615    constr:    0.0000
     atom:   27    charge:    1.8739    magn:   -0.0300    constr:    0.0000
     atom:   28    charge:   10.0211    magn:    0.7880    constr:    0.0000
     atom:   29    charge:    1.8739    magn:   -0.0301    constr:    0.0000
     atom:   30    charge:    1.7124    magn:    0.0616    constr:    0.0000
     atom:   31    charge:    1.7144    magn:   -0.0148    constr:    0.0000
     atom:   32    charge:    1.7156    magn:    0.0180    constr:    0.0000
     atom:   33    charge:    1.7176    magn:   -0.0098    constr:    0.0000
     atom:   34    charge:    1.7141    magn:    0.0126    constr:    0.0000
     atom:   35    charge:    1.7177    magn:   -0.0097    constr:    0.0000
     atom:   36    charge:    1.7143    magn:    0.0062    constr:    0.0000
     atom:   37    charge:    1.7237    magn:   -0.0140    constr:    0.0000
     atom:   38    charge:    1.7125    magn:    0.0615    constr:    0.0000
     atom:   39    charge:    1.8739    magn:   -0.0300    constr:    0.0000
     atom:   40    charge:    1.7124    magn:    0.0616    constr:    0.0000
     atom:   41    charge:    1.7235    magn:   -0.0141    constr:    0.0000
     atom:   42    charge:    1.7142    magn:    0.0063    constr:    0.0000
     atom:   43    charge:    1.7176    magn:   -0.0098    constr:    0.0000
     atom:   44    charge:    1.7141    magn:    0.0126    constr:    0.0000
     atom:   45    charge:    1.7232    magn:   -0.0070    constr:    0.0000
     atom:   46    charge:    1.7141    magn:    0.0126    constr:    0.0000
     atom:   47    charge:    1.7177    magn:   -0.0097    constr:    0.0000
     atom:   48    charge:    1.7156    magn:    0.0180    constr:    0.0000
     atom:   49    charge:    1.7144    magn:   -0.0147    constr:    0.0000
     atom:   50    charge:    1.7159    magn:    0.0461    constr:    0.0000
     atom:   51    charge:    1.7144    magn:   -0.0148    constr:    0.0000
     atom:   52    charge:    1.7155    magn:    0.0180    constr:    0.0000

     total cpu time spent up to now is     2401.3 secs

     End of self-consistent calculation

 ------ SPIN UP ------------


          k = 0.0000 0.0000 0.0000 ( 87777 PWs)   bands (ev):

   -80.7314 -50.2347 -50.2345 -49.1527 -19.7847 -18.9497 -18.9491 -18.8567
   -18.8373 -18.8364 -18.4943 -17.0866 -17.0865 -17.0810 -17.0017 -17.0016
   -16.6898 -16.2417 -16.2416 -16.1329 -16.0721 -16.0719 -15.3716 -14.1322
   -14.1316 -14.0653 -13.9988 -13.9983 -13.3324 -13.0730 -13.0730 -13.0455
   -12.7432 -12.7431 -12.3261 -11.8512 -11.8508 -11.6665 -11.3915 -11.3914
   -10.4783  -9.6843  -9.6839  -9.4464  -9.3271  -9.3271  -9.2324  -9.2052
    -9.2050  -9.1906  -8.7019  -8.7019  -8.1752  -8.1748  -8.0693  -7.9483
    -7.8402  -7.4344  -7.4340  -7.2037  -7.2035  -7.2011  -6.9274  -6.9271
    -6.8443  -6.8330  -6.8329  -6.7222  -6.5705  -6.5700  -6.5456  -6.5388
    -6.5290  -6.5289  -6.4833  -6.4803  -5.6527  -5.6525  -5.5320  -5.5319
    -5.3286  -5.3283  -5.0469  -4.9901  -4.8899  -4.7574  -4.7372  -4.7365
    -4.4150  -4.2376  -4.2376  -4.2287  -4.2284  -3.8969  -3.8964  -3.7992
    -3.6756  -3.6755  -3.1585  -2.7654  -2.7649  -1.9076  -1.8102  -1.8096
    -1.4837  -1.1263  -1.1251  -0.8637   0.8950   0.9571   0.9579   1.5582
     1.5584   1.5681   2.5082   2.7499   2.7508   2.8479   3.0197   3.0244
     3.3907   3.4657   3.4660   3.6250   3.6639   3.7243   3.7404   3.7425

     occupation numbers 
     1.0000   1.0000   1.0000   1.0000   1.0000   1.0000   1.0000   1.0000
     1.0000   1.0000   1.0000   1.0000   1.0000   1.0000   1.0000   1.0000
     1.0000   1.0000   1.0000   1.0000   1.0000   1.0000   1.0000   1.0000
     1.0000   1.0000   1.0000   1.0000   1.0000   1.0000   1.0000   1.0000
     1.0000   1.0000   1.0000   1.0000   1.0000   1.0000   1.0000   1.0000
     1.0000   1.0000   1.0000   1.0000   1.0000   1.0000   1.0000   1.0000
     1.0000   1.0000   1.0000   1.0000   1.0000   1.0000   1.0000   1.0000
     1.0000   1.0000   1.0000   1.0000   1.0000   1.0000   1.0000   1.0000
     1.0000   1.0000   1.0000   1.0000   1.0000   1.0000   1.0000   1.0000
     1.0000   1.0000   1.0000   1.0000   1.0000   1.0000   1.0000   1.0000
     1.0000   1.0000   1.0000   1.0000   1.0000   1.0000   1.0000   1.0000
     1.0000   1.0000   1.0000   1.0000   1.0000   1.0000   1.0000   1.0000
     1.0000   1.0000   1.0000   1.0000   1.0000   1.0000   1.0000   1.0000
     1.0000   1.0000   1.0000   1.0000   0.0000   0.0000   0.0000   0.0000
     0.0000   0.0000   0.0000   0.0000   0.0000   0.0000   0.0000   0.0000
     0.0000   0.0000   0.0000   0.0000   0.0000   0.0000   0.0000   0.0000

 ------ SPIN DOWN ----------


          k = 0.0000 0.0000 0.0000 ( 87777 PWs)   bands (ev):

   -79.3887 -49.1621 -49.1621 -47.3836 -19.7430 -18.9015 -18.9007 -18.8192
   -18.8109 -18.8099 -18.4292 -17.0518 -17.0492 -17.0491 -16.9457 -16.9457
   -16.6602 -16.1916 -16.1916 -16.1019 -16.0284 -16.0282 -15.3407 -14.0589
   -14.0582 -13.9968 -13.9888 -13.9882 -13.3392 -13.0466 -13.0465 -13.0130
   -12.7242 -12.7240 -12.2890 -11.8092 -11.8088 -11.6415 -11.3674 -11.3672
   -10.4407  -9.6162  -9.6159  -9.4155  -9.2923  -9.2922  -9.2164  -9.1807
    -9.1805  -9.1732  -8.6861  -8.6860  -8.1254  -8.1250  -8.0380  -7.8513
    -7.8221  -7.4183  -7.4179  -7.1448  -7.0082  -7.0080  -6.8656  -6.8653
    -6.7762  -6.7761  -6.7464  -6.7062  -6.5512  -6.5506  -6.5275  -6.5161
    -6.5160  -6.4794  -6.4660  -6.3953  -5.4936  -5.4935  -5.3645  -5.3642
    -5.2514  -5.2511  -4.9766  -4.8787  -4.6949  -4.6826  -4.6460  -4.6452
    -4.3381  -4.1073  -4.1072  -4.0220  -4.0216  -3.7611  -3.7605  -3.7117
    -3.6568  -3.6566  -3.0861  -2.5060  -2.5055  -1.7853  -1.7847  -1.7381
    -0.8281  -0.5274  -0.5259  -0.0830   0.9992   1.0001   1.0517   1.7337
     1.7374   1.7376   2.5452   2.8873   2.8882   2.9167   3.3077   3.3196
     3.5738   3.6523   3.6528   3.6728   3.6992   3.7483   3.7526   3.7567

     occupation numbers 
     1.0000   1.0000   1.0000   1.0000   1.0000   1.0000   1.0000   1.0000
     1.0000   1.0000   1.0000   1.0000   1.0000   1.0000   1.0000   1.0000
     1.0000   1.0000   1.0000   1.0000   1.0000   1.0000   1.0000   1.0000
     1.0000   1.0000   1.0000   1.0000   1.0000   1.0000   1.0000   1.0000
     1.0000   1.0000   1.0000   1.0000   1.0000   1.0000   1.0000   1.0000
     1.0000   1.0000   1.0000   1.0000   1.0000   1.0000   1.0000   1.0000
     1.0000   1.0000   1.0000   1.0000   1.0000   1.0000   1.0000   1.0000
     1.0000   1.0000   1.0000   1.0000   1.0000   1.0000   1.0000   1.0000
     1.0000   1.0000   1.0000   1.0000   1.0000   1.0000   1.0000   1.0000
     1.0000   1.0000   1.0000   1.0000   1.0000   1.0000   1.0000   1.0000
     1.0000   1.0000   1.0000   1.0000   1.0000   1.0000   1.0000   1.0000
     1.0000   1.0000   1.0000   1.0000   1.0000   1.0000   1.0000   1.0000
     1.0000   1.0000   1.0000   1.0000   1.0000   1.0000   1.0000   1.0000
     1.0000   0.0000   0.0000   0.0000   0.0000   0.0000   0.0000   0.0000
     0.0000   0.0000   0.0000   0.0000   0.0000   0.0000   0.0000   0.0000
     0.0000   0.0000   0.0000   0.0000   0.0000   0.0000   0.0000   0.0000

     the Fermi energy is    -0.6743 ev

!    total energy              =    -825.94202503 Ry
     Harris-Foulkes estimate   =    -825.94202541 Ry
     estimated scf accuracy    <       0.00000072 Ry

     The total energy is the sum of the following terms:

     one-electron contribution =   -2703.44245648 Ry
     hartree contribution      =    1396.49341603 Ry
     xc contribution           =    -259.63985794 Ry
     ewald contribution        =     740.64687337 Ry
     smearing contrib. (-TS)   =       0.00000000 Ry

     total magnetization       =     3.00 Bohr mag/cell
     absolute magnetization    =     4.32 Bohr mag/cell

     convergence has been achieved in  17 iterations

     Writing output data file distance-4.5.save/

     init_run     :     86.06s CPU     87.68s WALL (       1 calls)
     electrons    :   2276.12s CPU   2312.54s WALL (       1 calls)

     Called by init_run:
     wfcinit      :     56.26s CPU     56.63s WALL (       1 calls)
     wfcinit:atom :      0.10s CPU      0.12s WALL (       2 calls)
     wfcinit:wfcr :     55.76s CPU     56.05s WALL (       2 calls)
     potinit      :     11.89s CPU     12.40s WALL (       1 calls)
     hinit0       :      6.71s CPU      6.76s WALL (       1 calls)

     Called by electrons:
     c_bands      :   1516.66s CPU   1524.50s WALL (      17 calls)
     sum_band     :    453.28s CPU    464.65s WALL (      17 calls)
     v_of_rho     :    149.56s CPU    157.11s WALL (      18 calls)
     v_h          :      1.66s CPU      1.70s WALL (      18 calls)
     v_xc         :    147.89s CPU    155.40s WALL (      18 calls)
     newd         :    160.86s CPU    171.33s WALL (      18 calls)
     mix_rho      :      8.56s CPU      8.71s WALL (      17 calls)

     Called by c_bands:
     init_us_2    :      3.98s CPU      4.04s WALL (      70 calls)
     cegterg      :   1507.15s CPU   1514.96s WALL (      34 calls)

     Called by sum_band:
     sum_band:bec :      0.03s CPU      0.03s WALL (      34 calls)
     addusdens    :    282.99s CPU    293.14s WALL (      17 calls)

     Called by *egterg:
     h_psi        :    797.77s CPU    803.44s WALL (     182 calls)
     s_psi        :    266.36s CPU    266.44s WALL (     182 calls)
     g_psi        :      0.80s CPU      0.80s WALL (     146 calls)
     cdiaghg      :     16.70s CPU     16.71s WALL (     180 calls)
     cegterg:over :    198.59s CPU    198.67s WALL (     146 calls)
     cegterg:upda :    132.78s CPU    133.56s WALL (     146 calls)
     cegterg:last :     76.21s CPU     76.23s WALL (      34 calls)

     Called by h_psi:
     h_psi:pot    :    796.87s CPU    801.60s WALL (     182 calls)
     h_psi:calbec :    263.11s CPU    263.22s WALL (     182 calls)
     vloc_psi     :    267.49s CPU    272.03s WALL (     182 calls)
     add_vuspsi   :    266.27s CPU    266.35s WALL (     182 calls)

     General routines
     calbec       :    364.37s CPU    364.55s WALL (     216 calls)
     fft          :     85.84s CPU     88.93s WALL (    1344 calls)
     ffts         :      1.66s CPU      1.71s WALL (      70 calls)
     fftw         :    277.15s CPU    281.87s WALL (   27590 calls)
     interpolate  :      3.80s CPU      3.88s WALL (      36 calls)

     Parallel routines
     fft_scatt_xy :     72.54s CPU     73.21s WALL (   29004 calls)
     fft_scatt_yz :    103.73s CPU    109.36s WALL (   29004 calls)

     PWSCF        :  39m23.66s CPU  40m 2.13s WALL


   This run was terminated on:  12:50:55  10Aug2022            

=------------------------------------------------------------------------------=
   JOB DONE.
=------------------------------------------------------------------------------=
