
     Program PWSCF v.6.4.1 starts on  3Sep2022 at  9:35: 7 

     This program is part of the open-source Quantum ESPRESSO suite
     for quantum simulation of materials; please cite
         "P. Giannozzi et al., J. Phys.:Condens. Matter 21 395502 (2009);
         "P. Giannozzi et al., J. Phys.:Condens. Matter 29 465901 (2017);
          URL http://www.quantum-espresso.org", 
     in publications or presentations arising from this work. More details at
     http://www.quantum-espresso.org/quote

     Parallel version (MPI), running on     6 processors

     MPI processes distributed on     1 nodes
     R & G space division:  proc/nbgrp/npool/nimage =       6
     Reading input from distance-2.4.in

     Current dimensions of program PWSCF are:
     Max number of different atomic species (ntypx) = 10
     Max number of k-points (npk) =  40000
     Max angular momentum in pseudopotentials (lmaxx) =  3

     IMPORTANT: XC functional enforced from input :
     Exchange-correlation      = RVV10 ( 1  4 13  4 3 0)
     Any further DFT definition will be discarded
     Please, verify this is what you really want

               file H.pbe-rrkjus.UPF: wavefunction(s)  1S renormalized
               file Mn.pbe-spn-rrkjus_psl.0.3.1.UPF: wavefunction(s)  3D renormalized

     Subspace diagonalization in iterative solution of the eigenvalue problem:
     a serial algorithm will be used


     Parallelization info
     --------------------
     sticks:   dense  smooth     PW     G-vecs:    dense   smooth      PW
     Min        3051    1746    432               270999   117096   14629
     Max        3053    1747    437               271001   117099   14630
     Sum       18313   10477   2611              1626001   702581   87777



     bravais-lattice index     =            4
     lattice parameter (alat)  =      23.2937  a.u.
     unit-cell volume          =    8879.8548 (a.u.)^3
     number of atoms/cell      =           52
     number of atomic types    =            3
     number of electrons       =       213.00
     number of Kohn-Sham states=          128
     kinetic-energy cutoff     =      70.0000  Ry
     charge density cutoff     =     490.0000  Ry
     convergence threshold     =      1.0E-06
     mixing beta               =       0.7000
     number of iterations used =            8  plain     mixing
     Exchange-correlation      = RVV10 ( 1  4 13  4 3 0)

     celldm(1)=  23.293684  celldm(2)=   0.000000  celldm(3)=   0.811261
     celldm(4)=   0.000000  celldm(5)=   0.000000  celldm(6)=   0.000000

     crystal axes: (cart. coord. in units of alat)
               a(1) = (   1.000000   0.000000   0.000000 )  
               a(2) = (  -0.500000   0.866025   0.000000 )  
               a(3) = (   0.000000   0.000000   0.811261 )  

     reciprocal axes: (cart. coord. in units 2 pi/alat)
               b(1) = (  1.000000  0.577350 -0.000000 )  
               b(2) = (  0.000000  1.154701  0.000000 )  
               b(3) = (  0.000000 -0.000000  1.232649 )  


     PseudoPot. # 1 for H  read from file:
     /home/cristian/Escritorio/Proyecto_Grafeno/pseudopotenciales/H.pbe-rrkjus.UPF
     MD5 check sum: 7cc9d459525c9a0585f487a71c3c9563
     Pseudo is Ultrasoft, Zval =  1.0
     Generated by new atomic code, or converted to UPF format
     Using radial grid of 1061 points,  2 beta functions with: 
                l(1) =   0
                l(2) =   0
     Q(r) pseudized with 0 coefficients 


     PseudoPot. # 2 for C  read from file:
     /home/cristian/Escritorio/Proyecto_Grafeno/pseudopotenciales/C.pbe-n-rrkjus_psl.1.0.0.UPF
     MD5 check sum: 1fdd950c42eb37d8afe3dd2f8d12311e
     Pseudo is Ultrasoft + core correction, Zval =  4.0
     Generated using "atomic" code by A. Dal Corso v.6.3MaX
     Using radial grid of 1073 points,  4 beta functions with: 
                l(1) =   0
                l(2) =   0
                l(3) =   1
                l(4) =   1
     Q(r) pseudized with 0 coefficients 


     PseudoPot. # 3 for Mn read from file:
     /home/cristian/Escritorio/Proyecto_Grafeno/pseudopotenciales/Mn.pbe-spn-rrkjus_psl.0.3.1.UPF
     MD5 check sum: e1cac159bdd2ba70c18e85765a5d4279
     Pseudo is Ultrasoft + core correction, Zval = 15.0
     Generated using "atomic" code by A. Dal Corso v.6.2.2
     Using radial grid of 1187 points,  6 beta functions with: 
                l(1) =   0
                l(2) =   0
                l(3) =   1
                l(4) =   1
                l(5) =   2
                l(6) =   2
     Q(r) pseudized with 0 coefficients 


     vdW kernel table read from file rVV10_kernel_table
     MD5 check sum: b8e2538accc0c0b3206b45ba4daaba6c

     atomic species   valence    mass     pseudopotential
        H              1.00     1.00794     H ( 1.00)
        C              4.00    12.01070     C ( 1.00)
        Mn            15.00    54.93804     Mn( 1.00)

     No symmetry found


                                    s                        frac. trans.

      isym =  1     identity                                     

 cryst.   s( 1) = (     1          0          0      )
                  (     0          1          0      )
                  (     0          0          1      )

 cart.    s( 1) = (  1.0000000  0.0000000  0.0000000 )
                  (  0.0000000  1.0000000  0.0000000 )
                  (  0.0000000  0.0000000  1.0000000 )


     point group C_1 (1)    
     there are  1 classes
     the character table:

       E    
A      1.00

     the symmetry operations in each class and the name of the first element:

     E        1
          identity                                               

   Cartesian axes

     site n.     atom                  positions (alat units)
         1           H   tau(   1) = (   0.2194937   0.4907477   0.1947027  )
         2           H   tau(   2) = (   0.2805063   0.4907477   0.1947027  )
         3           C   tau(   3) = (   0.0000000   0.0000000   0.0000000  )
         4           C   tau(   4) = (   0.0000000   0.1154701   0.0000000  )
         5           C   tau(   5) = (  -0.1000000   0.1732051   0.0000000  )
         6           C   tau(   6) = (  -0.1000000   0.2886751   0.0000000  )
         7           C   tau(   7) = (  -0.2000000   0.3464102   0.0000000  )
         8           C   tau(   8) = (  -0.2000000   0.4618802   0.0000000  )
         9           C   tau(   9) = (  -0.3000000   0.5196152   0.0000000  )
        10           C   tau(  10) = (  -0.3000000   0.6350853   0.0000000  )
        11           C   tau(  11) = (  -0.4000000   0.6928203   0.0000000  )
        12           C   tau(  12) = (  -0.4000000   0.8082904   0.0000000  )
        13           C   tau(  13) = (   0.2000000   0.0000000   0.0000000  )
        14           C   tau(  14) = (   0.2000000   0.1154701   0.0000000  )
        15           C   tau(  15) = (   0.1000000   0.1732051   0.0000000  )
        16           C   tau(  16) = (   0.1000000   0.2886751   0.0000000  )
        17           C   tau(  17) = (   0.0000000   0.3464102   0.0000000  )
        18           C   tau(  18) = (   0.0000000   0.4618802   0.0000000  )
        19           C   tau(  19) = (  -0.1000000   0.5196152   0.0000000  )
        20           C   tau(  20) = (  -0.1000000   0.6350853   0.0000000  )
        21           C   tau(  21) = (  -0.2000000   0.6928203   0.0000000  )
        22           C   tau(  22) = (  -0.2000000   0.8082904   0.0000000  )
        23           C   tau(  23) = (   0.4000000   0.0000000   0.0000000  )
        24           C   tau(  24) = (   0.4000000   0.1154701   0.0000000  )
        25           C   tau(  25) = (   0.3000000   0.1732051   0.0000000  )
        26           C   tau(  26) = (   0.3000000   0.2886751   0.0000000  )
        27           C   tau(  27) = (   0.2000000   0.3464102   0.0000000  )
        28           Mn  tau(  28) = (   0.2000000   0.4618802   0.0000000  )
        29           C   tau(  29) = (   0.1000000   0.5196152   0.0000000  )
        30           C   tau(  30) = (   0.1000000   0.6350853   0.0000000  )
        31           C   tau(  31) = (   0.0000000   0.6928203   0.0000000  )
        32           C   tau(  32) = (   0.0000000   0.8082904   0.0000000  )
        33           C   tau(  33) = (   0.6000000   0.0000000   0.0000000  )
        34           C   tau(  34) = (   0.6000000   0.1154701   0.0000000  )
        35           C   tau(  35) = (   0.5000000   0.1732051   0.0000000  )
        36           C   tau(  36) = (   0.5000000   0.2886751   0.0000000  )
        37           C   tau(  37) = (   0.4000000   0.3464102   0.0000000  )
        38           C   tau(  38) = (   0.4000000   0.4618802   0.0000000  )
        39           C   tau(  39) = (   0.3000000   0.5196152   0.0000000  )
        40           C   tau(  40) = (   0.3000000   0.6350853   0.0000000  )
        41           C   tau(  41) = (   0.2000000   0.6928203   0.0000000  )
        42           C   tau(  42) = (   0.2000000   0.8082904   0.0000000  )
        43           C   tau(  43) = (   0.8000000   0.0000000   0.0000000  )
        44           C   tau(  44) = (   0.8000000   0.1154701   0.0000000  )
        45           C   tau(  45) = (   0.7000000   0.1732051   0.0000000  )
        46           C   tau(  46) = (   0.7000000   0.2886751   0.0000000  )
        47           C   tau(  47) = (   0.6000000   0.3464102   0.0000000  )
        48           C   tau(  48) = (   0.6000000   0.4618802   0.0000000  )
        49           C   tau(  49) = (   0.5000000   0.5196152   0.0000000  )
        50           C   tau(  50) = (   0.5000000   0.6350853   0.0000000  )
        51           C   tau(  51) = (   0.4000000   0.6928203   0.0000000  )
        52           C   tau(  52) = (   0.4000000   0.8082904   0.0000000  )

   Crystallographic axes

     site n.     atom                  positions (cryst. coord.)
         1           H   tau(   1) = (  0.5028270  0.5666667  0.2400000  )
         2           H   tau(   2) = (  0.5638397  0.5666667  0.2400000  )
         3           C   tau(   3) = (  0.0000000  0.0000000  0.0000000  )
         4           C   tau(   4) = (  0.0666667  0.1333333  0.0000000  )
         5           C   tau(   5) = (  0.0000000  0.2000000  0.0000000  )
         6           C   tau(   6) = (  0.0666667  0.3333333  0.0000000  )
         7           C   tau(   7) = (  0.0000000  0.4000000  0.0000000  )
         8           C   tau(   8) = (  0.0666667  0.5333333  0.0000000  )
         9           C   tau(   9) = (  0.0000000  0.6000000  0.0000000  )
        10           C   tau(  10) = (  0.0666667  0.7333333  0.0000000  )
        11           C   tau(  11) = (  0.0000000  0.8000000  0.0000000  )
        12           C   tau(  12) = (  0.0666667  0.9333333  0.0000000  )
        13           C   tau(  13) = (  0.2000000  0.0000000  0.0000000  )
        14           C   tau(  14) = (  0.2666667  0.1333333  0.0000000  )
        15           C   tau(  15) = (  0.2000000  0.2000000  0.0000000  )
        16           C   tau(  16) = (  0.2666667  0.3333333  0.0000000  )
        17           C   tau(  17) = (  0.2000000  0.4000000  0.0000000  )
        18           C   tau(  18) = (  0.2666667  0.5333333  0.0000000  )
        19           C   tau(  19) = (  0.2000000  0.6000000  0.0000000  )
        20           C   tau(  20) = (  0.2666667  0.7333333  0.0000000  )
        21           C   tau(  21) = (  0.2000000  0.8000000  0.0000000  )
        22           C   tau(  22) = (  0.2666667  0.9333333  0.0000000  )
        23           C   tau(  23) = (  0.4000000  0.0000000  0.0000000  )
        24           C   tau(  24) = (  0.4666667  0.1333333  0.0000000  )
        25           C   tau(  25) = (  0.4000000  0.2000000  0.0000000  )
        26           C   tau(  26) = (  0.4666667  0.3333333  0.0000000  )
        27           C   tau(  27) = (  0.4000000  0.4000000  0.0000000  )
        28           Mn  tau(  28) = (  0.4666667  0.5333333  0.0000000  )
        29           C   tau(  29) = (  0.4000000  0.6000000  0.0000000  )
        30           C   tau(  30) = (  0.4666667  0.7333333  0.0000000  )
        31           C   tau(  31) = (  0.4000000  0.8000000  0.0000000  )
        32           C   tau(  32) = (  0.4666667  0.9333333  0.0000000  )
        33           C   tau(  33) = (  0.6000000  0.0000000  0.0000000  )
        34           C   tau(  34) = (  0.6666667  0.1333333  0.0000000  )
        35           C   tau(  35) = (  0.6000000  0.2000000  0.0000000  )
        36           C   tau(  36) = (  0.6666667  0.3333333  0.0000000  )
        37           C   tau(  37) = (  0.6000000  0.4000000  0.0000000  )
        38           C   tau(  38) = (  0.6666667  0.5333333  0.0000000  )
        39           C   tau(  39) = (  0.6000000  0.6000000  0.0000000  )
        40           C   tau(  40) = (  0.6666667  0.7333333  0.0000000  )
        41           C   tau(  41) = (  0.6000000  0.8000000  0.0000000  )
        42           C   tau(  42) = (  0.6666667  0.9333333  0.0000000  )
        43           C   tau(  43) = (  0.8000000  0.0000000  0.0000000  )
        44           C   tau(  44) = (  0.8666667  0.1333333  0.0000000  )
        45           C   tau(  45) = (  0.8000000  0.2000000  0.0000000  )
        46           C   tau(  46) = (  0.8666667  0.3333333  0.0000000  )
        47           C   tau(  47) = (  0.8000000  0.4000000  0.0000000  )
        48           C   tau(  48) = (  0.8666667  0.5333333  0.0000000  )
        49           C   tau(  49) = (  0.8000000  0.6000000  0.0000000  )
        50           C   tau(  50) = (  0.8666667  0.7333333  0.0000000  )
        51           C   tau(  51) = (  0.8000000  0.8000000  0.0000000  )
        52           C   tau(  52) = (  0.8666667  0.9333333  0.0000000  )

     number of k points=     1  Marzari-Vanderbilt smearing, width (Ry)=  0.0010
                       cart. coord. in units 2pi/alat
        k(    1) = (   0.0000000   0.0000000   0.0000000), wk =   2.0000000

                       cryst. coord.
        k(    1) = (   0.0000000   0.0000000   0.0000000), wk =   2.0000000

     Dense  grid:  1626001 G-vectors     FFT dimensions: ( 180, 180, 135)

     Smooth grid:   702581 G-vectors     FFT dimensions: ( 125, 125, 108)

     Dynamical RAM for                 wfc:      28.59 MB

     Dynamical RAM for     wfc (w. buffer):      28.59 MB

     Dynamical RAM for           str. fact:      12.41 MB

     Dynamical RAM for           local pot:       0.00 MB

     Dynamical RAM for          nlocal pot:      92.46 MB

     Dynamical RAM for                qrad:      19.73 MB

     Dynamical RAM for          rho,v,vnew:      29.46 MB

     Dynamical RAM for               rhoin:       9.82 MB

     Dynamical RAM for            rho*nmix:      66.16 MB

     Dynamical RAM for           G-vectors:      16.40 MB

     Dynamical RAM for          h,s,v(r/c):      12.00 MB

     Dynamical RAM for          <psi|beta>:       0.81 MB

     Dynamical RAM for                 psi:     114.35 MB

     Dynamical RAM for                hpsi:     114.35 MB

     Dynamical RAM for                spsi:     114.35 MB

     Dynamical RAM for      wfcinit/wfcrot:      93.90 MB

     Dynamical RAM for           addusdens:     971.75 MB

     Estimated static dynamical RAM per process >     320.00 MB

     Estimated max dynamical RAM per process >       1.26 GB

     Estimated total dynamical RAM >       7.57 GB

     Check: negative core charge=   -0.000002

     Initial potential from superposition of free atoms

     starting charge  212.80506, renormalised to  213.00000

     negative rho (up, down):  7.698E-05 0.000E+00


---------------------------------------------------------------------------------
Carrying out rVV10 run using the following parameters:
Nqs =      20    Nr_points =    1024   r_max =   100.000
b_value =  6.30000    beta =  0.00901
     q_mesh =  0.00010000  0.00030000  0.00058939  0.00100810
               0.00161396  0.00249058  0.00375900  0.00559430
               0.00824984  0.01209221  0.01765183  0.02569619
               0.03733578  0.05417739  0.07854596  0.11380545
               0.16482331  0.23864234  0.34545298  0.50000000

Gradients computed in Reciprocal space

---------------------------------------------------------------------------------


     Starting wfcs are  208 randomized atomic wfcs

     total cpu time spent up to now is       52.6 secs

     Self-consistent Calculation

     iteration #  1     ecut=    70.00 Ry     beta= 0.70
     Davidson diagonalization with overlap
     ethr =  1.00E-02,  avg # of iterations =  2.0

     negative rho (up, down):  1.557E-04 0.000E+00

     total cpu time spent up to now is      116.8 secs

     total energy              =    -822.17365787 Ry
     Harris-Foulkes estimate   =    -828.90830844 Ry
     estimated scf accuracy    <       9.55241940 Ry

     iteration #  2     ecut=    70.00 Ry     beta= 0.70
     Davidson diagonalization with overlap
     ethr =  4.48E-03,  avg # of iterations =  7.0

     negative rho (up, down):  1.930E-04 0.000E+00

     total cpu time spent up to now is      182.0 secs

     total energy              =    -814.86681896 Ry
     Harris-Foulkes estimate   =    -838.68399746 Ry
     estimated scf accuracy    <      95.35421586 Ry

     iteration #  3     ecut=    70.00 Ry     beta= 0.70
     Davidson diagonalization with overlap
     ethr =  4.48E-03,  avg # of iterations =  5.0

     negative rho (up, down):  2.316E-04 0.000E+00

     total cpu time spent up to now is      272.0 secs

     total energy              =    -824.95182048 Ry
     Harris-Foulkes estimate   =    -826.70147332 Ry
     estimated scf accuracy    <       6.70967233 Ry

     iteration #  4     ecut=    70.00 Ry     beta= 0.70
     Davidson diagonalization with overlap
     ethr =  3.15E-03,  avg # of iterations =  3.0

     negative rho (up, down):  2.685E-04 0.000E+00

     total cpu time spent up to now is      322.7 secs

     total energy              =    -825.41902030 Ry
     Harris-Foulkes estimate   =    -826.25274409 Ry
     estimated scf accuracy    <       2.58387641 Ry

     iteration #  5     ecut=    70.00 Ry     beta= 0.70
     Davidson diagonalization with overlap
     ethr =  1.21E-03,  avg # of iterations =  4.0

     negative rho (up, down):  2.894E-04 0.000E+00

     total cpu time spent up to now is      372.7 secs

     total energy              =    -825.90615990 Ry
     Harris-Foulkes estimate   =    -826.04247454 Ry
     estimated scf accuracy    <       1.10672910 Ry

     iteration #  6     ecut=    70.00 Ry     beta= 0.70
     Davidson diagonalization with overlap
     ethr =  5.20E-04,  avg # of iterations =  1.0

     negative rho (up, down):  3.255E-04 0.000E+00

     total cpu time spent up to now is      420.2 secs

     total energy              =    -825.89280390 Ry
     Harris-Foulkes estimate   =    -825.93871509 Ry
     estimated scf accuracy    <       0.43059205 Ry

     iteration #  7     ecut=    70.00 Ry     beta= 0.70
     Davidson diagonalization with overlap
     ethr =  2.02E-04,  avg # of iterations =  5.0

     negative rho (up, down):  3.470E-04 0.000E+00

     total cpu time spent up to now is      469.6 secs

     total energy              =    -825.88271648 Ry
     Harris-Foulkes estimate   =    -825.90864160 Ry
     estimated scf accuracy    <       0.23070515 Ry

     iteration #  8     ecut=    70.00 Ry     beta= 0.70
     Davidson diagonalization with overlap
     ethr =  1.08E-04,  avg # of iterations =  1.0

     negative rho (up, down):  4.379E-04 0.000E+00

     total cpu time spent up to now is      517.5 secs

     total energy              =    -825.88083995 Ry
     Harris-Foulkes estimate   =    -825.89985749 Ry
     estimated scf accuracy    <       0.07826454 Ry

     iteration #  9     ecut=    70.00 Ry     beta= 0.70
     Davidson diagonalization with overlap
     ethr =  3.67E-05,  avg # of iterations =  5.0

     negative rho (up, down):  5.153E-04 0.000E+00

     total cpu time spent up to now is      568.6 secs

     total energy              =    -825.87906191 Ry
     Harris-Foulkes estimate   =    -825.90118551 Ry
     estimated scf accuracy    <       0.36594614 Ry

     iteration # 10     ecut=    70.00 Ry     beta= 0.70
     Davidson diagonalization with overlap
     ethr =  3.67E-05,  avg # of iterations =  1.0

     negative rho (up, down):  5.618E-04 0.000E+00

     total cpu time spent up to now is      616.2 secs

     total energy              =    -825.88840756 Ry
     Harris-Foulkes estimate   =    -825.89393268 Ry
     estimated scf accuracy    <       0.04897516 Ry

     iteration # 11     ecut=    70.00 Ry     beta= 0.70
     Davidson diagonalization with overlap
     ethr =  2.30E-05,  avg # of iterations =  1.0

     negative rho (up, down):  5.896E-04 0.000E+00

     total cpu time spent up to now is      664.0 secs

     total energy              =    -825.89027519 Ry
     Harris-Foulkes estimate   =    -825.89560558 Ry
     estimated scf accuracy    <       0.03697884 Ry

     iteration # 12     ecut=    70.00 Ry     beta= 0.70
     Davidson diagonalization with overlap
     ethr =  1.74E-05,  avg # of iterations =  1.0

     negative rho (up, down):  5.836E-04 0.000E+00

     total cpu time spent up to now is      711.7 secs

     total energy              =    -825.88953312 Ry
     Harris-Foulkes estimate   =    -825.89400056 Ry
     estimated scf accuracy    <       0.09007086 Ry

     iteration # 13     ecut=    70.00 Ry     beta= 0.70
     Davidson diagonalization with overlap
     ethr =  1.74E-05,  avg # of iterations =  1.0

     negative rho (up, down):  6.089E-04 0.000E+00

     total cpu time spent up to now is      759.2 secs

     total energy              =    -825.89091761 Ry
     Harris-Foulkes estimate   =    -825.89239155 Ry
     estimated scf accuracy    <       0.02888619 Ry

     iteration # 14     ecut=    70.00 Ry     beta= 0.70
     Davidson diagonalization with overlap
     ethr =  1.36E-05,  avg # of iterations =  1.0

     negative rho (up, down):  6.374E-04 0.000E+00

     total cpu time spent up to now is      806.6 secs

     total energy              =    -825.89046485 Ry
     Harris-Foulkes estimate   =    -825.89183243 Ry
     estimated scf accuracy    <       0.02742531 Ry

     iteration # 15     ecut=    70.00 Ry     beta= 0.70
     Davidson diagonalization with overlap
     ethr =  1.29E-05,  avg # of iterations =  1.0

     negative rho (up, down):  6.357E-04 0.000E+00

     total cpu time spent up to now is      854.2 secs

     total energy              =    -825.89109133 Ry
     Harris-Foulkes estimate   =    -825.89122566 Ry
     estimated scf accuracy    <       0.00919920 Ry

     iteration # 16     ecut=    70.00 Ry     beta= 0.70
     Davidson diagonalization with overlap
     ethr =  4.32E-06,  avg # of iterations =  1.0

     negative rho (up, down):  6.412E-04 0.000E+00

     total cpu time spent up to now is      901.7 secs

     total energy              =    -825.89092611 Ry
     Harris-Foulkes estimate   =    -825.89122032 Ry
     estimated scf accuracy    <       0.01081933 Ry

     iteration # 17     ecut=    70.00 Ry     beta= 0.70
     Davidson diagonalization with overlap
     ethr =  4.32E-06,  avg # of iterations =  1.0

     negative rho (up, down):  6.502E-04 0.000E+00

     total cpu time spent up to now is      949.2 secs

     total energy              =    -825.89088592 Ry
     Harris-Foulkes estimate   =    -825.89102509 Ry
     estimated scf accuracy    <       0.00270419 Ry

     iteration # 18     ecut=    70.00 Ry     beta= 0.70
     Davidson diagonalization with overlap
     ethr =  1.27E-06,  avg # of iterations =  1.0

     negative rho (up, down):  6.929E-04 0.000E+00

     total cpu time spent up to now is      996.8 secs

     total energy              =    -825.89033103 Ry
     Harris-Foulkes estimate   =    -825.89094266 Ry
     estimated scf accuracy    <       0.00457057 Ry

     iteration # 19     ecut=    70.00 Ry     beta= 0.70
     Davidson diagonalization with overlap
     ethr =  1.27E-06,  avg # of iterations =  3.0

     negative rho (up, down):  6.784E-04 0.000E+00

     total cpu time spent up to now is     1045.5 secs

     total energy              =    -825.88850582 Ry
     Harris-Foulkes estimate   =    -825.89227524 Ry
     estimated scf accuracy    <       0.27630936 Ry

     iteration # 20     ecut=    70.00 Ry     beta= 0.70
     Davidson diagonalization with overlap
     ethr =  1.27E-06,  avg # of iterations =  2.0

     negative rho (up, down):  6.781E-04 0.000E+00

     total cpu time spent up to now is     1093.3 secs

     total energy              =    -825.89058793 Ry
     Harris-Foulkes estimate   =    -825.89087570 Ry
     estimated scf accuracy    <       0.00523047 Ry

     iteration # 21     ecut=    70.00 Ry     beta= 0.70
     Davidson diagonalization with overlap
     ethr =  1.27E-06,  avg # of iterations =  1.0

     negative rho (up, down):  6.715E-04 0.000E+00

     total cpu time spent up to now is     1141.0 secs

     total energy              =    -825.89072494 Ry
     Harris-Foulkes estimate   =    -825.89076847 Ry
     estimated scf accuracy    <       0.00117884 Ry

     iteration # 22     ecut=    70.00 Ry     beta= 0.70
     Davidson diagonalization with overlap
     ethr =  5.53E-07,  avg # of iterations =  1.0

     negative rho (up, down):  6.764E-04 0.000E+00

     total cpu time spent up to now is     1188.5 secs

     total energy              =    -825.89078833 Ry
     Harris-Foulkes estimate   =    -825.89085917 Ry
     estimated scf accuracy    <       0.00462579 Ry

     iteration # 23     ecut=    70.00 Ry     beta= 0.70
     Davidson diagonalization with overlap
     ethr =  5.53E-07,  avg # of iterations =  1.0

     negative rho (up, down):  6.781E-04 0.000E+00

     total cpu time spent up to now is     1236.1 secs

     total energy              =    -825.89077252 Ry
     Harris-Foulkes estimate   =    -825.89079976 Ry
     estimated scf accuracy    <       0.00256702 Ry

     iteration # 24     ecut=    70.00 Ry     beta= 0.70
     Davidson diagonalization with overlap
     ethr =  5.53E-07,  avg # of iterations =  1.0

     negative rho (up, down):  6.789E-04 0.000E+00

     total cpu time spent up to now is     1283.7 secs

     total energy              =    -825.89076333 Ry
     Harris-Foulkes estimate   =    -825.89077553 Ry
     estimated scf accuracy    <       0.00175164 Ry

     iteration # 25     ecut=    70.00 Ry     beta= 0.70
     Davidson diagonalization with overlap
     ethr =  5.53E-07,  avg # of iterations =  1.0

     negative rho (up, down):  6.796E-04 0.000E+00

     total cpu time spent up to now is     1331.1 secs

     total energy              =    -825.89075325 Ry
     Harris-Foulkes estimate   =    -825.89076420 Ry
     estimated scf accuracy    <       0.00137106 Ry

     iteration # 26     ecut=    70.00 Ry     beta= 0.70
     Davidson diagonalization with overlap
     ethr =  5.53E-07,  avg # of iterations =  1.0

     negative rho (up, down):  6.793E-04 0.000E+00

     total cpu time spent up to now is     1378.6 secs

     total energy              =    -825.89075781 Ry
     Harris-Foulkes estimate   =    -825.89075427 Ry
     estimated scf accuracy    <       0.00099913 Ry

     iteration # 27     ecut=    70.00 Ry     beta= 0.70
     Davidson diagonalization with overlap
     ethr =  4.69E-07,  avg # of iterations =  1.0

     negative rho (up, down):  6.787E-04 0.000E+00

     total cpu time spent up to now is     1426.3 secs

     total energy              =    -825.89076635 Ry
     Harris-Foulkes estimate   =    -825.89075846 Ry
     estimated scf accuracy    <       0.00126926 Ry

     iteration # 28     ecut=    70.00 Ry     beta= 0.70
     Davidson diagonalization with overlap
     ethr =  4.69E-07,  avg # of iterations =  1.0

     negative rho (up, down):  6.832E-04 0.000E+00

     total cpu time spent up to now is     1474.0 secs

     total energy              =    -825.89064159 Ry
     Harris-Foulkes estimate   =    -825.89076713 Ry
     estimated scf accuracy    <       0.00145100 Ry

     iteration # 29     ecut=    70.00 Ry     beta= 0.70
     Davidson diagonalization with overlap
     ethr =  4.69E-07,  avg # of iterations =  1.0

     negative rho (up, down):  6.811E-04 0.000E+00

     total cpu time spent up to now is     1521.5 secs

     total energy              =    -825.89056080 Ry
     Harris-Foulkes estimate   =    -825.89086165 Ry
     estimated scf accuracy    <       0.00740381 Ry

     iteration # 30     ecut=    70.00 Ry     beta= 0.70
     Davidson diagonalization with overlap
     ethr =  4.69E-07,  avg # of iterations =  1.0

     negative rho (up, down):  6.807E-04 0.000E+00

     total cpu time spent up to now is     1569.1 secs

     total energy              =    -825.89071201 Ry
     Harris-Foulkes estimate   =    -825.89071756 Ry
     estimated scf accuracy    <       0.00010008 Ry

     iteration # 31     ecut=    70.00 Ry     beta= 0.70
     Davidson diagonalization with overlap
     ethr =  4.70E-08,  avg # of iterations =  2.0

     negative rho (up, down):  6.805E-04 0.000E+00

     total cpu time spent up to now is     1616.9 secs

     total energy              =    -825.89071118 Ry
     Harris-Foulkes estimate   =    -825.89072340 Ry
     estimated scf accuracy    <       0.00020379 Ry

     iteration # 32     ecut=    70.00 Ry     beta= 0.70
     Davidson diagonalization with overlap
     ethr =  4.70E-08,  avg # of iterations =  1.0

     negative rho (up, down):  6.802E-04 0.000E+00

     total cpu time spent up to now is     1664.4 secs

     total energy              =    -825.89071644 Ry
     Harris-Foulkes estimate   =    -825.89071941 Ry
     estimated scf accuracy    <       0.00005273 Ry

     iteration # 33     ecut=    70.00 Ry     beta= 0.70
     Davidson diagonalization with overlap
     ethr =  2.48E-08,  avg # of iterations =  1.0

     negative rho (up, down):  6.801E-04 0.000E+00

     total cpu time spent up to now is     1711.9 secs

     total energy              =    -825.89071752 Ry
     Harris-Foulkes estimate   =    -825.89071877 Ry
     estimated scf accuracy    <       0.00003201 Ry

     iteration # 34     ecut=    70.00 Ry     beta= 0.70
     Davidson diagonalization with overlap
     ethr =  1.50E-08,  avg # of iterations =  1.0

     negative rho (up, down):  6.800E-04 0.000E+00

     total cpu time spent up to now is     1759.4 secs

     total energy              =    -825.89071782 Ry
     Harris-Foulkes estimate   =    -825.89071822 Ry
     estimated scf accuracy    <       0.00001118 Ry

     iteration # 35     ecut=    70.00 Ry     beta= 0.70
     Davidson diagonalization with overlap
     ethr =  5.25E-09,  avg # of iterations =  1.0

     negative rho (up, down):  6.799E-04 0.000E+00

     total cpu time spent up to now is     1807.0 secs

     total energy              =    -825.89071798 Ry
     Harris-Foulkes estimate   =    -825.89071816 Ry
     estimated scf accuracy    <       0.00000194 Ry

     iteration # 36     ecut=    70.00 Ry     beta= 0.70
     Davidson diagonalization with overlap
     ethr =  9.10E-10,  avg # of iterations =  2.0

     negative rho (up, down):  6.799E-04 0.000E+00

     total cpu time spent up to now is     1854.8 secs

     total energy              =    -825.89071798 Ry
     Harris-Foulkes estimate   =    -825.89071818 Ry
     estimated scf accuracy    <       0.00000204 Ry

     iteration # 37     ecut=    70.00 Ry     beta= 0.70
     Davidson diagonalization with overlap
     ethr =  9.10E-10,  avg # of iterations =  1.0

     negative rho (up, down):  6.798E-04 0.000E+00

     total cpu time spent up to now is     1902.2 secs

     End of self-consistent calculation

          k = 0.0000 0.0000 0.0000 ( 87777 PWs)   bands (ev):

   -80.0972 -49.7429 -49.7147 -48.3671 -19.6770 -18.8289 -18.8216 -18.7676
   -18.7657 -18.7447 -18.4241 -16.9957 -16.9943 -16.9820 -16.9008 -16.8986
   -16.5968 -16.1401 -16.1375 -16.0485 -15.9921 -15.9857 -15.3114 -14.0233
   -14.0192 -13.9669 -13.9081 -13.9067 -13.3053 -12.9835 -12.9799 -12.9514
   -12.6725 -12.6702 -12.2110 -11.7659 -11.7613 -11.5835 -11.3152 -11.3126
   -10.4037  -9.6086  -9.6073  -9.3643  -9.2217  -9.2204  -9.1315  -9.1065
    -9.1063  -9.0976  -8.6272  -8.6195  -8.1825  -8.1039  -8.1016  -7.9515
    -7.7512  -7.7121  -7.3399  -7.3371  -7.1257  -7.0854  -7.0092  -6.8346
    -6.8322  -6.7318  -6.7305  -6.6983  -6.6438  -6.4667  -6.4632  -6.4525
    -6.4518  -6.4469  -6.4049  -6.2996  -5.5377  -5.4958  -5.4429  -5.4402
    -5.2258  -5.2239  -4.8913  -4.8663  -4.8187  -4.6397  -4.6220  -4.6165
    -4.2803  -4.1271  -4.1109  -4.1034  -4.0942  -3.7409  -3.7407  -3.6862
    -3.5909  -3.5879  -3.0502  -2.5981  -2.5944  -1.7588  -1.7172  -1.7161
    -0.8403  -0.7908  -0.7873  -0.7657   1.0266   1.0498   1.0527   1.6910
     1.7032   1.7270   2.5563   2.8717   2.8955   2.9297   2.9673   3.0882
     3.4426   3.5901   3.6011   3.6507   3.6971   3.8068   3.8083   3.8349

     occupation numbers 
     1.0000   1.0000   1.0000   1.0000   1.0000   1.0000   1.0000   1.0000
     1.0000   1.0000   1.0000   1.0000   1.0000   1.0000   1.0000   1.0000
     1.0000   1.0000   1.0000   1.0000   1.0000   1.0000   1.0000   1.0000
     1.0000   1.0000   1.0000   1.0000   1.0000   1.0000   1.0000   1.0000
     1.0000   1.0000   1.0000   1.0000   1.0000   1.0000   1.0000   1.0000
     1.0000   1.0000   1.0000   1.0000   1.0000   1.0000   1.0000   1.0000
     1.0000   1.0000   1.0000   1.0000   1.0000   1.0000   1.0000   1.0000
     1.0000   1.0000   1.0000   1.0000   1.0000   1.0000   1.0000   1.0000
     1.0000   1.0000   1.0000   1.0000   1.0000   1.0000   1.0000   1.0000
     1.0000   1.0000   1.0000   1.0000   1.0000   1.0000   1.0000   1.0000
     1.0000   1.0000   1.0000   1.0000   1.0000   1.0000   1.0000   1.0000
     1.0000   1.0000   1.0000   1.0000   1.0000   1.0000   1.0000   1.0000
     1.0000   1.0000   1.0000   1.0000   1.0000   1.0000   1.0000   1.0000
     1.0000   0.8327   0.6556   0.0116   0.0000   0.0000   0.0000   0.0000
     0.0000   0.0000   0.0000   0.0000   0.0000   0.0000   0.0000   0.0000
     0.0000   0.0000   0.0000   0.0000   0.0000   0.0000   0.0000   0.0000

     the Fermi energy is    -0.7826 ev

!    total energy              =    -825.89071771 Ry
     Harris-Foulkes estimate   =    -825.89071811 Ry
     estimated scf accuracy    <       0.00000053 Ry

     The total energy is the sum of the following terms:

     one-electron contribution =   -2737.55365154 Ry
     hartree contribution      =    1413.99204150 Ry
     xc contribution           =    -259.66744987 Ry
     ewald contribution        =     757.33871506 Ry
     smearing contrib. (-TS)   =      -0.00037285 Ry

     convergence has been achieved in  37 iterations

     Writing output data file manganeso-bridge-distance-2.4.save/

     init_run     :     50.53s CPU     51.55s WALL (       1 calls)
     electrons    :   1791.55s CPU   1849.64s WALL (       1 calls)

     Called by init_run:
     wfcinit      :     19.90s CPU     20.06s WALL (       1 calls)
     wfcinit:atom :      0.02s CPU      0.04s WALL (       1 calls)
     wfcinit:wfcr :     19.73s CPU     19.82s WALL (       1 calls)
     potinit      :     13.50s CPU     13.83s WALL (       1 calls)
     hinit0       :     12.55s CPU     12.56s WALL (       1 calls)

     Called by electrons:
     c_bands      :   1048.37s CPU   1054.26s WALL (      37 calls)
     sum_band     :    366.32s CPU    386.58s WALL (      37 calls)
     v_of_rho     :    224.25s CPU    237.08s WALL (      38 calls)
     v_h          :      2.58s CPU      2.66s WALL (      38 calls)
     v_xc         :    221.67s CPU    234.42s WALL (      38 calls)
     newd         :    151.05s CPU    170.72s WALL (      38 calls)
     mix_rho      :      7.29s CPU      7.42s WALL (      37 calls)

     Called by c_bands:
     init_us_2    :      3.10s CPU      3.14s WALL (      75 calls)
     cegterg      :   1040.55s CPU   1046.41s WALL (      37 calls)

     Called by sum_band:
     sum_band:bec :      0.03s CPU      0.03s WALL (      37 calls)
     addusdens    :    227.00s CPU    246.40s WALL (      37 calls)

     Called by *egterg:
     h_psi        :    549.30s CPU    553.34s WALL (     104 calls)
     s_psi        :    184.74s CPU    184.78s WALL (     104 calls)
     g_psi        :      0.56s CPU      0.56s WALL (      66 calls)
     cdiaghg      :      5.89s CPU      5.89s WALL (     103 calls)
     cegterg:over :    125.20s CPU    125.25s WALL (      66 calls)
     cegterg:upda :     69.12s CPU     69.58s WALL (      66 calls)
     cegterg:last :     62.45s CPU     62.46s WALL (      38 calls)

     Called by h_psi:
     h_psi:pot    :    548.70s CPU    551.95s WALL (     104 calls)
     h_psi:calbec :    185.46s CPU    185.51s WALL (     104 calls)
     vloc_psi     :    177.78s CPU    180.96s WALL (     104 calls)
     add_vuspsi   :    185.45s CPU    185.48s WALL (     104 calls)

     General routines
     calbec       :    270.63s CPU    270.70s WALL (     141 calls)
     fft          :    129.29s CPU    133.86s WALL (    2392 calls)
     ffts         :      1.25s CPU      1.29s WALL (      75 calls)
     fftw         :    191.14s CPU    194.74s WALL (   25372 calls)
     interpolate  :      3.06s CPU      3.12s WALL (      38 calls)

     Parallel routines
     fft_scatt_xy :     54.80s CPU     55.43s WALL (   27839 calls)
     fft_scatt_yz :    111.53s CPU    117.65s WALL (   27839 calls)

     PWSCF        :  30m43.24s CPU  31m42.58s WALL


   This run was terminated on:  10: 6:49   3Sep2022            

=------------------------------------------------------------------------------=
   JOB DONE.
=------------------------------------------------------------------------------=
