
     Program PWSCF v.6.4.1 starts on 27Jul2022 at 19: 7:16 

     This program is part of the open-source Quantum ESPRESSO suite
     for quantum simulation of materials; please cite
         "P. Giannozzi et al., J. Phys.:Condens. Matter 21 395502 (2009);
         "P. Giannozzi et al., J. Phys.:Condens. Matter 29 465901 (2017);
          URL http://www.quantum-espresso.org", 
     in publications or presentations arising from this work. More details at
     http://www.quantum-espresso.org/quote

     Parallel version (MPI), running on     6 processors

     MPI processes distributed on     1 nodes
     R & G space division:  proc/nbgrp/npool/nimage =       6
     Reading input from mn-8.85.in

     Current dimensions of program PWSCF are:
     Max number of different atomic species (ntypx) = 10
     Max number of k-points (npk) =  40000
     Max angular momentum in pseudopotentials (lmaxx) =  3
               file Mn.pbe-spn-rrkjus_psl.0.3.1.UPF: wavefunction(s)  3D renormalized

     Subspace diagonalization in iterative solution of the eigenvalue problem:
     a serial algorithm will be used

     Found symmetry operation: I + ( -0.5000 -0.5000 -0.5000)
     This is a supercell, fractional translations are disabled
     Message from routine setup:
     DEPRECATED: symmetry with ibrav=0, use correct ibrav instead

     Parallelization info
     --------------------
     sticks:   dense  smooth     PW     G-vecs:    dense   smooth      PW
     Min        1785     894    238               138388    48937    6723
     Max        1788     896    239               138389    48938    6724
     Sum       10717    5369   1433               830329   293627   40339



     bravais-lattice index     =            0
     lattice parameter (alat)  =      16.7241  a.u.
     unit-cell volume          =    4677.6360 (a.u.)^3
     number of atoms/cell      =            2
     number of atomic types    =            1
     number of electrons       =        30.00
     number of Kohn-Sham states=           19
     kinetic-energy cutoff     =      60.0000  Ry
     charge density cutoff     =     480.0000  Ry
     convergence threshold     =      1.0E-06
     mixing beta               =       0.7000
     number of iterations used =            8  plain     mixing
     Exchange-correlation      = PBE ( 1  4  3  4 0 0)

     celldm(1)=  16.724076  celldm(2)=   0.000000  celldm(3)=   0.000000
     celldm(4)=   0.000000  celldm(5)=   0.000000  celldm(6)=   0.000000

     crystal axes: (cart. coord. in units of alat)
               a(1) = (   1.000000   0.000000   0.000000 )  
               a(2) = (   0.000000   1.000000   0.000000 )  
               a(3) = (   0.000000   0.000000   1.000000 )  

     reciprocal axes: (cart. coord. in units 2 pi/alat)
               b(1) = (  1.000000  0.000000  0.000000 )  
               b(2) = (  0.000000  1.000000  0.000000 )  
               b(3) = (  0.000000  0.000000  1.000000 )  


     PseudoPot. # 1 for Mn read from file:
     /home/cristian/Escritorio/Proyecto_Grafeno/pseudopotenciales/Mn.pbe-spn-rrkjus_psl.0.3.1.UPF
     MD5 check sum: e1cac159bdd2ba70c18e85765a5d4279
     Pseudo is Ultrasoft + core correction, Zval = 15.0
     Generated using "atomic" code by A. Dal Corso v.6.2.2
     Using radial grid of 1187 points,  6 beta functions with: 
                l(1) =   0
                l(2) =   0
                l(3) =   1
                l(4) =   1
                l(5) =   2
                l(6) =   2
     Q(r) pseudized with 0 coefficients 


     atomic species   valence    mass     pseudopotential
        Mn            15.00    54.93804     Mn( 1.00)

     Starting magnetic structure 
     atomic species   magnetization
        Mn           0.700

     48 Sym. Ops., with inversion, found



   Cartesian axes

     site n.     atom                  positions (alat units)
         1           Mn  tau(   1) = (   0.0000000   0.0000000   0.0000000  )
         2           Mn  tau(   2) = (   0.5000000   0.5000000   0.5000000  )

     number of k points=     4  Methfessel-Paxton smearing, width (Ry)=  0.0300
                       cart. coord. in units 2pi/alat
        k(    1) = (   0.1250000   0.1250000   0.1250000), wk =   0.1250000
        k(    2) = (   0.1250000   0.1250000   0.3750000), wk =   0.3750000
        k(    3) = (   0.1250000   0.3750000   0.3750000), wk =   0.3750000
        k(    4) = (   0.3750000   0.3750000   0.3750000), wk =   0.1250000

     Dense  grid:   830329 G-vectors     FFT dimensions: ( 120, 120, 120)

     Smooth grid:   293627 G-vectors     FFT dimensions: (  90,  90,  90)

     Estimated max dynamical RAM per process >     552.95 MB

     Estimated total dynamical RAM >       3.24 GB
     Generating pointlists ...
     new r_m :   0.3572 (alat units)  5.9744 (a.u.) for type    1

     Check: negative core charge=   -0.000001

     Initial potential from superposition of free atoms

     starting charge   29.99900, renormalised to   30.00000

     negative rho (up, down):  0.000E+00 1.823E-02
     Starting wfcs are   20 randomized atomic wfcs

     total cpu time spent up to now is        4.9 secs

     Self-consistent Calculation

     iteration #  1     ecut=    60.00 Ry     beta= 0.70
     Davidson diagonalization with overlap
     ethr =  1.00E-02,  avg # of iterations =  1.5

     negative rho (up, down):  8.229E-09 9.722E-04

     total cpu time spent up to now is       13.0 secs

     total energy              =    -426.64830637 Ry
     Harris-Foulkes estimate   =    -425.58069345 Ry
     estimated scf accuracy    <       2.03119318 Ry

     total magnetization       =     8.00 Bohr mag/cell
     absolute magnetization    =     8.85 Bohr mag/cell

     iteration #  2     ecut=    60.00 Ry     beta= 0.70
     Davidson diagonalization with overlap
     ethr =  6.77E-03,  avg # of iterations =  3.0

     negative rho (up, down):  0.000E+00 1.236E-03

     total cpu time spent up to now is       21.6 secs

     total energy              =    -426.60127020 Ry
     Harris-Foulkes estimate   =    -426.99113030 Ry
     estimated scf accuracy    <       1.07015000 Ry

     total magnetization       =     8.00 Bohr mag/cell
     absolute magnetization    =     9.03 Bohr mag/cell

     iteration #  3     ecut=    60.00 Ry     beta= 0.70
     Davidson diagonalization with overlap
     ethr =  3.57E-03,  avg # of iterations =  5.5

     negative rho (up, down):  0.000E+00 2.408E-03

     total cpu time spent up to now is       30.4 secs

     total energy              =    -425.51551920 Ry
     Harris-Foulkes estimate   =    -428.08595774 Ry
     estimated scf accuracy    <      30.76505987 Ry

     total magnetization       =     2.00 Bohr mag/cell
     absolute magnetization    =     2.69 Bohr mag/cell

     iteration #  4     ecut=    60.00 Ry     beta= 0.70
     Davidson diagonalization with overlap
     ethr =  3.57E-03,  avg # of iterations =  2.5

     negative rho (up, down):  0.000E+00 9.898E-03

     total cpu time spent up to now is       38.3 secs

     total energy              =    -426.63303381 Ry
     Harris-Foulkes estimate   =    -427.13282813 Ry
     estimated scf accuracy    <       2.70797505 Ry

     total magnetization       =     8.06 Bohr mag/cell
     absolute magnetization    =     9.02 Bohr mag/cell

     iteration #  5     ecut=    60.00 Ry     beta= 0.70
     Davidson diagonalization with overlap
     ethr =  3.57E-03,  avg # of iterations =  3.0

     negative rho (up, down):  0.000E+00 1.054E-02

     total cpu time spent up to now is       46.3 secs

     total energy              =    -426.97655986 Ry
     Harris-Foulkes estimate   =    -427.02477041 Ry
     estimated scf accuracy    <       0.33823764 Ry

     total magnetization       =     8.00 Bohr mag/cell
     absolute magnetization    =     8.92 Bohr mag/cell

     iteration #  6     ecut=    60.00 Ry     beta= 0.70
     Davidson diagonalization with overlap
     ethr =  1.13E-03,  avg # of iterations =  2.5

     negative rho (up, down):  0.000E+00 7.682E-03

     total cpu time spent up to now is       53.9 secs

     total energy              =    -426.97522423 Ry
     Harris-Foulkes estimate   =    -426.99285611 Ry
     estimated scf accuracy    <       0.19756383 Ry

     total magnetization       =     8.00 Bohr mag/cell
     absolute magnetization    =     9.02 Bohr mag/cell

     iteration #  7     ecut=    60.00 Ry     beta= 0.70
     Davidson diagonalization with overlap
     ethr =  6.59E-04,  avg # of iterations =  1.0

     negative rho (up, down):  0.000E+00 7.113E-03

     total cpu time spent up to now is       60.9 secs

     total energy              =    -426.97952095 Ry
     Harris-Foulkes estimate   =    -426.98138836 Ry
     estimated scf accuracy    <       0.03890671 Ry

     total magnetization       =     8.00 Bohr mag/cell
     absolute magnetization    =     9.03 Bohr mag/cell

     iteration #  8     ecut=    60.00 Ry     beta= 0.70
     Davidson diagonalization with overlap
     ethr =  1.30E-04,  avg # of iterations =  3.0

     negative rho (up, down):  0.000E+00 7.967E-03

     total cpu time spent up to now is       69.2 secs

     total energy              =    -426.98194253 Ry
     Harris-Foulkes estimate   =    -426.98958445 Ry
     estimated scf accuracy    <       0.27164304 Ry

     total magnetization       =     8.00 Bohr mag/cell
     absolute magnetization    =     8.96 Bohr mag/cell

     iteration #  9     ecut=    60.00 Ry     beta= 0.70
     Davidson diagonalization with overlap
     ethr =  1.30E-04,  avg # of iterations =  1.1

     negative rho (up, down):  0.000E+00 1.554E-02

     total cpu time spent up to now is       76.4 secs

     total energy              =    -426.98556393 Ry
     Harris-Foulkes estimate   =    -426.98727939 Ry
     estimated scf accuracy    <       0.01731625 Ry

     total magnetization       =     8.00 Bohr mag/cell
     absolute magnetization    =     9.09 Bohr mag/cell

     iteration # 10     ecut=    60.00 Ry     beta= 0.70
     Davidson diagonalization with overlap
     ethr =  5.77E-05,  avg # of iterations =  3.1

     negative rho (up, down):  0.000E+00 1.356E-02

     total cpu time spent up to now is       84.2 secs

     total energy              =    -426.98690729 Ry
     Harris-Foulkes estimate   =    -426.99002895 Ry
     estimated scf accuracy    <       0.06334308 Ry

     total magnetization       =     8.00 Bohr mag/cell
     absolute magnetization    =     8.93 Bohr mag/cell

     iteration # 11     ecut=    60.00 Ry     beta= 0.70
     Davidson diagonalization with overlap
     ethr =  5.77E-05,  avg # of iterations =  1.8

     negative rho (up, down):  0.000E+00 9.748E-03

     total cpu time spent up to now is       91.8 secs

     total energy              =    -426.98791961 Ry
     Harris-Foulkes estimate   =    -426.98914496 Ry
     estimated scf accuracy    <       0.01871404 Ry

     total magnetization       =     8.00 Bohr mag/cell
     absolute magnetization    =     8.99 Bohr mag/cell

     iteration # 12     ecut=    60.00 Ry     beta= 0.70
     Davidson diagonalization with overlap
     ethr =  5.77E-05,  avg # of iterations =  1.0

     negative rho (up, down):  0.000E+00 7.717E-03

     total cpu time spent up to now is       99.0 secs

     total energy              =    -426.98862668 Ry
     Harris-Foulkes estimate   =    -426.98885221 Ry
     estimated scf accuracy    <       0.01828207 Ry

     total magnetization       =     8.00 Bohr mag/cell
     absolute magnetization    =     8.94 Bohr mag/cell

     iteration # 13     ecut=    60.00 Ry     beta= 0.70
     Davidson diagonalization with overlap
     ethr =  5.77E-05,  avg # of iterations =  1.0

     negative rho (up, down):  0.000E+00 7.918E-03

     total cpu time spent up to now is      106.0 secs

     total energy              =    -426.98886817 Ry
     Harris-Foulkes estimate   =    -426.98886455 Ry
     estimated scf accuracy    <       0.00029396 Ry

     total magnetization       =     8.00 Bohr mag/cell
     absolute magnetization    =     8.96 Bohr mag/cell

     iteration # 14     ecut=    60.00 Ry     beta= 0.70
     Davidson diagonalization with overlap
     ethr =  9.80E-07,  avg # of iterations = 10.0

     negative rho (up, down):  0.000E+00 2.635E-02

     total cpu time spent up to now is      115.8 secs

     total energy              =    -426.99717919 Ry
     Harris-Foulkes estimate   =    -426.99513034 Ry
     estimated scf accuracy    <       0.23437904 Ry

     total magnetization       =     8.00 Bohr mag/cell
     absolute magnetization    =     8.87 Bohr mag/cell

     iteration # 15     ecut=    60.00 Ry     beta= 0.70
     Davidson diagonalization with overlap
     ethr =  9.80E-07,  avg # of iterations =  5.5

     negative rho (up, down):  0.000E+00 1.235E-02

     total cpu time spent up to now is      127.1 secs

     total energy              =    -426.99515863 Ry
     Harris-Foulkes estimate   =    -426.99846685 Ry
     estimated scf accuracy    <       0.38499186 Ry

     total magnetization       =     8.00 Bohr mag/cell
     absolute magnetization    =     8.89 Bohr mag/cell

     iteration # 16     ecut=    60.00 Ry     beta= 0.70
     Davidson diagonalization with overlap
     ethr =  9.80E-07,  avg # of iterations =  4.5

     negative rho (up, down):  0.000E+00 9.488E-03

     total cpu time spent up to now is      136.9 secs

     total energy              =    -426.99513037 Ry
     Harris-Foulkes estimate   =    -426.99564019 Ry
     estimated scf accuracy    <       0.29780668 Ry

     total magnetization       =     8.00 Bohr mag/cell
     absolute magnetization    =     8.88 Bohr mag/cell

     iteration # 17     ecut=    60.00 Ry     beta= 0.70
     Davidson diagonalization with overlap
     ethr =  9.80E-07,  avg # of iterations =  3.1

     negative rho (up, down):  0.000E+00 8.925E-03

     total cpu time spent up to now is      144.6 secs

     total energy              =    -426.99537000 Ry
     Harris-Foulkes estimate   =    -426.99516732 Ry
     estimated scf accuracy    <       0.27910666 Ry

     total magnetization       =     8.00 Bohr mag/cell
     absolute magnetization    =     8.88 Bohr mag/cell

     iteration # 18     ecut=    60.00 Ry     beta= 0.70
     Davidson diagonalization with overlap
     ethr =  9.80E-07,  avg # of iterations =  1.0

     negative rho (up, down):  0.000E+00 8.543E-03

     total cpu time spent up to now is      151.6 secs

     total energy              =    -426.99527576 Ry
     Harris-Foulkes estimate   =    -426.99538375 Ry
     estimated scf accuracy    <       0.28687901 Ry

     total magnetization       =     8.00 Bohr mag/cell
     absolute magnetization    =     8.87 Bohr mag/cell

     iteration # 19     ecut=    60.00 Ry     beta= 0.70
     Davidson diagonalization with overlap
     ethr =  9.80E-07,  avg # of iterations =  1.0

     negative rho (up, down):  0.000E+00 5.984E-03

     total cpu time spent up to now is      158.5 secs

     total energy              =    -426.99449719 Ry
     Harris-Foulkes estimate   =    -426.99527779 Ry
     estimated scf accuracy    <       0.28220434 Ry

     total magnetization       =     8.00 Bohr mag/cell
     absolute magnetization    =     8.87 Bohr mag/cell

     iteration # 20     ecut=    60.00 Ry     beta= 0.70
     Davidson diagonalization with overlap
     ethr =  9.80E-07,  avg # of iterations =  3.6

     negative rho (up, down):  0.000E+00 9.484E-03

     total cpu time spent up to now is      166.9 secs

     total energy              =    -426.99470968 Ry
     Harris-Foulkes estimate   =    -426.99458550 Ry
     estimated scf accuracy    <       0.24994497 Ry

     total magnetization       =     8.00 Bohr mag/cell
     absolute magnetization    =     8.87 Bohr mag/cell

     iteration # 21     ecut=    60.00 Ry     beta= 0.70
     Davidson diagonalization with overlap
     ethr =  9.80E-07,  avg # of iterations =  3.0

     negative rho (up, down):  0.000E+00 1.036E-02

     total cpu time spent up to now is      175.4 secs

     total energy              =    -426.99485515 Ry
     Harris-Foulkes estimate   =    -426.99478878 Ry
     estimated scf accuracy    <       0.26483454 Ry

     total magnetization       =     8.00 Bohr mag/cell
     absolute magnetization    =     8.87 Bohr mag/cell

     iteration # 22     ecut=    60.00 Ry     beta= 0.70
     Davidson diagonalization with overlap
     ethr =  9.80E-07,  avg # of iterations =  1.0

     negative rho (up, down):  0.000E+00 8.750E-04

     total cpu time spent up to now is      183.0 secs

     total energy              =    -426.97637814 Ry
     Harris-Foulkes estimate   =    -426.99486553 Ry
     estimated scf accuracy    <       0.26565266 Ry

     total magnetization       =     8.00 Bohr mag/cell
     absolute magnetization    =     8.87 Bohr mag/cell

     iteration # 23     ecut=    60.00 Ry     beta= 0.70
     Davidson diagonalization with overlap
     ethr =  9.80E-07,  avg # of iterations = 13.2

     negative rho (up, down):  0.000E+00 9.097E-04

     total cpu time spent up to now is      196.9 secs

     total energy              =    -426.99009021 Ry
     Harris-Foulkes estimate   =    -426.99537731 Ry
     estimated scf accuracy    <       0.26946469 Ry

     total magnetization       =     8.00 Bohr mag/cell
     absolute magnetization    =     8.93 Bohr mag/cell

     iteration # 24     ecut=    60.00 Ry     beta= 0.70
     Davidson diagonalization with overlap
     ethr =  9.80E-07,  avg # of iterations =  6.9

     negative rho (up, down):  0.000E+00 9.905E-03

     total cpu time spent up to now is      208.5 secs

     total energy              =    -426.98481737 Ry
     Harris-Foulkes estimate   =    -426.99207974 Ry
     estimated scf accuracy    <       0.02960595 Ry

     total magnetization       =     8.00 Bohr mag/cell
     absolute magnetization    =     8.82 Bohr mag/cell

     iteration # 25     ecut=    60.00 Ry     beta= 0.70
     Davidson diagonalization with overlap
     ethr =  9.80E-07,  avg # of iterations = 14.2

     negative rho (up, down):  0.000E+00 9.097E-04

     total cpu time spent up to now is      223.9 secs

     total energy              =    -426.98791413 Ry
     Harris-Foulkes estimate   =    -426.99950302 Ry
     estimated scf accuracy    <       0.34825748 Ry

     total magnetization       =     8.00 Bohr mag/cell
     absolute magnetization    =     8.98 Bohr mag/cell

     iteration # 26     ecut=    60.00 Ry     beta= 0.70
     Davidson diagonalization with overlap
     ethr =  9.80E-07,  avg # of iterations =  7.2

     negative rho (up, down):  0.000E+00 2.250E-03

     total cpu time spent up to now is      236.8 secs

     total energy              =    -426.99484302 Ry
     Harris-Foulkes estimate   =    -426.99323367 Ry
     estimated scf accuracy    <       0.09571225 Ry

     total magnetization       =     8.00 Bohr mag/cell
     absolute magnetization    =     8.93 Bohr mag/cell

     iteration # 27     ecut=    60.00 Ry     beta= 0.70
     Davidson diagonalization with overlap
     ethr =  9.80E-07,  avg # of iterations =  4.5

     negative rho (up, down):  0.000E+00 3.521E-03

     total cpu time spent up to now is      248.1 secs

     total energy              =    -426.99512950 Ry
     Harris-Foulkes estimate   =    -426.99619261 Ry
     estimated scf accuracy    <       0.23943906 Ry

     total magnetization       =     8.00 Bohr mag/cell
     absolute magnetization    =     8.96 Bohr mag/cell

     iteration # 28     ecut=    60.00 Ry     beta= 0.70
     Davidson diagonalization with overlap
     ethr =  9.80E-07,  avg # of iterations =  3.0

     negative rho (up, down):  0.000E+00 9.514E-04

     total cpu time spent up to now is      257.1 secs

     total energy              =    -426.99117039 Ry
     Harris-Foulkes estimate   =    -426.99526361 Ry
     estimated scf accuracy    <       0.19429392 Ry

     total magnetization       =     8.00 Bohr mag/cell
     absolute magnetization    =     8.97 Bohr mag/cell

     iteration # 29     ecut=    60.00 Ry     beta= 0.70
     Davidson diagonalization with overlap
     ethr =  9.80E-07,  avg # of iterations =  5.9

     negative rho (up, down):  0.000E+00 8.681E-04

     total cpu time spent up to now is      268.4 secs

     total energy              =    -426.98979513 Ry
     Harris-Foulkes estimate   =    -426.99299985 Ry
     estimated scf accuracy    <       0.07014581 Ry

     total magnetization       =     8.00 Bohr mag/cell
     absolute magnetization    =     8.94 Bohr mag/cell

     iteration # 30     ecut=    60.00 Ry     beta= 0.70
     Davidson diagonalization with overlap
     ethr =  9.80E-07,  avg # of iterations =  8.2

     negative rho (up, down):  0.000E+00 7.847E-04

     total cpu time spent up to now is      284.5 secs

     total energy              =    -426.99183127 Ry
     Harris-Foulkes estimate   =    -426.99241474 Ry
     estimated scf accuracy    <       0.01364748 Ry

     total magnetization       =     8.00 Bohr mag/cell
     absolute magnetization    =     8.78 Bohr mag/cell

     iteration # 31     ecut=    60.00 Ry     beta= 0.70
     Davidson diagonalization with overlap
     ethr =  9.80E-07,  avg # of iterations =  4.5

     negative rho (up, down):  0.000E+00 6.458E-04

     total cpu time spent up to now is      296.0 secs

     total energy              =    -426.99214884 Ry
     Harris-Foulkes estimate   =    -426.99239701 Ry
     estimated scf accuracy    <       0.00357561 Ry

     total magnetization       =     8.00 Bohr mag/cell
     absolute magnetization    =     8.82 Bohr mag/cell

     iteration # 32     ecut=    60.00 Ry     beta= 0.70
     Davidson diagonalization with overlap
     ethr =  9.80E-07,  avg # of iterations =  4.6

     negative rho (up, down):  0.000E+00 6.597E-04

     total cpu time spent up to now is      306.1 secs

     total energy              =    -426.99232703 Ry
     Harris-Foulkes estimate   =    -426.99243877 Ry
     estimated scf accuracy    <       0.01178163 Ry

     total magnetization       =     8.00 Bohr mag/cell
     absolute magnetization    =     8.78 Bohr mag/cell

     iteration # 33     ecut=    60.00 Ry     beta= 0.70
     Davidson diagonalization with overlap
     ethr =  9.80E-07,  avg # of iterations =  2.5

     negative rho (up, down):  0.000E+00 6.597E-04

     total cpu time spent up to now is      315.0 secs

     total energy              =    -426.99231757 Ry
     Harris-Foulkes estimate   =    -426.99236000 Ry
     estimated scf accuracy    <       0.00778761 Ry

     total magnetization       =     8.00 Bohr mag/cell
     absolute magnetization    =     8.78 Bohr mag/cell

     iteration # 34     ecut=    60.00 Ry     beta= 0.70
     Davidson diagonalization with overlap
     ethr =  9.80E-07,  avg # of iterations =  1.0

     negative rho (up, down):  0.000E+00 6.597E-04

     total cpu time spent up to now is      322.4 secs

     total energy              =    -426.99229217 Ry
     Harris-Foulkes estimate   =    -426.99232459 Ry
     estimated scf accuracy    <       0.00614207 Ry

     total magnetization       =     8.00 Bohr mag/cell
     absolute magnetization    =     8.78 Bohr mag/cell

     iteration # 35     ecut=    60.00 Ry     beta= 0.70
     Davidson diagonalization with overlap
     ethr =  9.80E-07,  avg # of iterations =  1.0

     negative rho (up, down):  0.000E+00 6.597E-04

     total cpu time spent up to now is      330.1 secs

     total energy              =    -426.99230235 Ry
     Harris-Foulkes estimate   =    -426.99229900 Ry
     estimated scf accuracy    <       0.00531567 Ry

     total magnetization       =     8.00 Bohr mag/cell
     absolute magnetization    =     8.78 Bohr mag/cell

     iteration # 36     ecut=    60.00 Ry     beta= 0.70
     Davidson diagonalization with overlap
     ethr =  9.80E-07,  avg # of iterations =  1.0

     negative rho (up, down):  0.000E+00 6.597E-04

     total cpu time spent up to now is      337.5 secs

     total energy              =    -426.99233249 Ry
     Harris-Foulkes estimate   =    -426.99230385 Ry
     estimated scf accuracy    <       0.00523669 Ry

     total magnetization       =     8.00 Bohr mag/cell
     absolute magnetization    =     8.78 Bohr mag/cell

     iteration # 37     ecut=    60.00 Ry     beta= 0.70
     Davidson diagonalization with overlap
     ethr =  9.80E-07,  avg # of iterations =  1.5

     negative rho (up, down):  0.000E+00 7.014E-04

     total cpu time spent up to now is      345.1 secs

     total energy              =    -426.99218647 Ry
     Harris-Foulkes estimate   =    -426.99235069 Ry
     estimated scf accuracy    <       0.00817125 Ry

     total magnetization       =     8.00 Bohr mag/cell
     absolute magnetization    =     8.78 Bohr mag/cell

     iteration # 38     ecut=    60.00 Ry     beta= 0.70
     Davidson diagonalization with overlap
     ethr =  9.80E-07,  avg # of iterations =  4.4

     negative rho (up, down):  0.000E+00 6.667E-04

     total cpu time spent up to now is      353.9 secs

     total energy              =    -426.99239447 Ry
     Harris-Foulkes estimate   =    -426.99241799 Ry
     estimated scf accuracy    <       0.00598022 Ry

     total magnetization       =     8.00 Bohr mag/cell
     absolute magnetization    =     8.83 Bohr mag/cell

     iteration # 39     ecut=    60.00 Ry     beta= 0.70
     Davidson diagonalization with overlap
     ethr =  9.80E-07,  avg # of iterations =  1.0

     negative rho (up, down):  0.000E+00 6.250E-04

     total cpu time spent up to now is      361.4 secs

     total energy              =    -426.99238859 Ry
     Harris-Foulkes estimate   =    -426.99239718 Ry
     estimated scf accuracy    <       0.00510297 Ry

     total magnetization       =     8.00 Bohr mag/cell
     absolute magnetization    =     8.83 Bohr mag/cell

     iteration # 40     ecut=    60.00 Ry     beta= 0.70
     Davidson diagonalization with overlap
     ethr =  9.80E-07,  avg # of iterations =  1.0

     negative rho (up, down):  0.000E+00 5.972E-04

     total cpu time spent up to now is      369.2 secs

     total energy              =    -426.99238311 Ry
     Harris-Foulkes estimate   =    -426.99238928 Ry
     estimated scf accuracy    <       0.00504124 Ry

     total magnetization       =     8.00 Bohr mag/cell
     absolute magnetization    =     8.83 Bohr mag/cell

     iteration # 41     ecut=    60.00 Ry     beta= 0.70
     Davidson diagonalization with overlap
     ethr =  9.80E-07,  avg # of iterations =  1.0

     negative rho (up, down):  0.000E+00 5.833E-04

     total cpu time spent up to now is      376.6 secs

     total energy              =    -426.99240769 Ry
     Harris-Foulkes estimate   =    -426.99238346 Ry
     estimated scf accuracy    <       0.00503539 Ry

     total magnetization       =     8.00 Bohr mag/cell
     absolute magnetization    =     8.83 Bohr mag/cell

     iteration # 42     ecut=    60.00 Ry     beta= 0.70
     Davidson diagonalization with overlap
     ethr =  9.80E-07,  avg # of iterations =  1.0

     negative rho (up, down):  0.000E+00 6.319E-04

     total cpu time spent up to now is      383.8 secs

     total energy              =    -426.99244958 Ry
     Harris-Foulkes estimate   =    -426.99240795 Ry
     estimated scf accuracy    <       0.00520126 Ry

     total magnetization       =     8.00 Bohr mag/cell
     absolute magnetization    =     8.83 Bohr mag/cell

     iteration # 43     ecut=    60.00 Ry     beta= 0.70
     Davidson diagonalization with overlap
     ethr =  9.80E-07,  avg # of iterations =  1.0

     negative rho (up, down):  0.000E+00 6.181E-04

     total cpu time spent up to now is      391.1 secs

     total energy              =    -426.99245765 Ry
     Harris-Foulkes estimate   =    -426.99245132 Ry
     estimated scf accuracy    <       0.00581182 Ry

     total magnetization       =     8.00 Bohr mag/cell
     absolute magnetization    =     8.83 Bohr mag/cell

     iteration # 44     ecut=    60.00 Ry     beta= 0.70
     Davidson diagonalization with overlap
     ethr =  9.80E-07,  avg # of iterations =  1.0

     negative rho (up, down):  0.000E+00 6.181E-04

     total cpu time spent up to now is      398.3 secs

     total energy              =    -426.99242335 Ry
     Harris-Foulkes estimate   =    -426.99245934 Ry
     estimated scf accuracy    <       0.00619283 Ry

     total magnetization       =     8.00 Bohr mag/cell
     absolute magnetization    =     8.83 Bohr mag/cell

     iteration # 45     ecut=    60.00 Ry     beta= 0.70
     Davidson diagonalization with overlap
     ethr =  9.80E-07,  avg # of iterations =  1.0

     negative rho (up, down):  0.000E+00 6.667E-04

     total cpu time spent up to now is      405.7 secs

     total energy              =    -426.99239592 Ry
     Harris-Foulkes estimate   =    -426.99242384 Ry
     estimated scf accuracy    <       0.00587710 Ry

     total magnetization       =     8.00 Bohr mag/cell
     absolute magnetization    =     8.83 Bohr mag/cell

     iteration # 46     ecut=    60.00 Ry     beta= 0.70
     Davidson diagonalization with overlap
     ethr =  9.80E-07,  avg # of iterations =  1.0

     negative rho (up, down):  0.000E+00 5.208E-04

     total cpu time spent up to now is      413.3 secs

     total energy              =    -426.99171662 Ry
     Harris-Foulkes estimate   =    -426.99239691 Ry
     estimated scf accuracy    <       0.00548143 Ry

     total magnetization       =     8.00 Bohr mag/cell
     absolute magnetization    =     8.83 Bohr mag/cell

     iteration # 47     ecut=    60.00 Ry     beta= 0.70
     Davidson diagonalization with overlap
     ethr =  9.80E-07,  avg # of iterations =  5.9

     negative rho (up, down):  0.000E+00 7.292E-04

     total cpu time spent up to now is      424.4 secs

     total energy              =    -426.99063656 Ry
     Harris-Foulkes estimate   =    -426.99478114 Ry
     estimated scf accuracy    <       0.13844742 Ry

     total magnetization       =     8.00 Bohr mag/cell
     absolute magnetization    =     8.94 Bohr mag/cell

     iteration # 48     ecut=    60.00 Ry     beta= 0.70
     Davidson diagonalization with overlap
     ethr =  9.80E-07,  avg # of iterations =  6.2

     negative rho (up, down):  0.000E+00 7.222E-04

     total cpu time spent up to now is      435.3 secs

     total energy              =    -426.99242496 Ry
     Harris-Foulkes estimate   =    -426.99247094 Ry
     estimated scf accuracy    <       0.00908233 Ry

     total magnetization       =     8.00 Bohr mag/cell
     absolute magnetization    =     8.85 Bohr mag/cell

     iteration # 49     ecut=    60.00 Ry     beta= 0.70
     Davidson diagonalization with overlap
     ethr =  9.80E-07,  avg # of iterations =  1.0

     negative rho (up, down):  0.000E+00 6.944E-04

     total cpu time spent up to now is      442.8 secs

     total energy              =    -426.99227875 Ry
     Harris-Foulkes estimate   =    -426.99242919 Ry
     estimated scf accuracy    <       0.00770201 Ry

     total magnetization       =     8.00 Bohr mag/cell
     absolute magnetization    =     8.85 Bohr mag/cell

     iteration # 50     ecut=    60.00 Ry     beta= 0.70
     Davidson diagonalization with overlap
     ethr =  9.80E-07,  avg # of iterations =  4.2

     negative rho (up, down):  0.000E+00 6.875E-04

     total cpu time spent up to now is      451.1 secs

     total energy              =    -426.99238290 Ry
     Harris-Foulkes estimate   =    -426.99238610 Ry
     estimated scf accuracy    <       0.00076024 Ry

     total magnetization       =     8.00 Bohr mag/cell
     absolute magnetization    =     8.79 Bohr mag/cell

     iteration # 51     ecut=    60.00 Ry     beta= 0.70
     Davidson diagonalization with overlap
     ethr =  9.80E-07,  avg # of iterations =  1.0

     negative rho (up, down):  0.000E+00 6.597E-04

     total cpu time spent up to now is      458.9 secs

     total energy              =    -426.99238903 Ry
     Harris-Foulkes estimate   =    -426.99238458 Ry
     estimated scf accuracy    <       0.00069727 Ry

     total magnetization       =     8.00 Bohr mag/cell
     absolute magnetization    =     8.79 Bohr mag/cell

     iteration # 52     ecut=    60.00 Ry     beta= 0.70
     Davidson diagonalization with overlap
     ethr =  9.80E-07,  avg # of iterations =  1.0

     negative rho (up, down):  0.000E+00 6.597E-04

     total cpu time spent up to now is      467.0 secs

     total energy              =    -426.99238099 Ry
     Harris-Foulkes estimate   =    -426.99238948 Ry
     estimated scf accuracy    <       0.00073030 Ry

     total magnetization       =     8.00 Bohr mag/cell
     absolute magnetization    =     8.79 Bohr mag/cell

     iteration # 53     ecut=    60.00 Ry     beta= 0.70
     Davidson diagonalization with overlap
     ethr =  9.80E-07,  avg # of iterations =  1.0

     negative rho (up, down):  0.000E+00 6.597E-04

     total cpu time spent up to now is      475.1 secs

     total energy              =    -426.99239123 Ry
     Harris-Foulkes estimate   =    -426.99238155 Ry
     estimated scf accuracy    <       0.00060830 Ry

     total magnetization       =     8.00 Bohr mag/cell
     absolute magnetization    =     8.79 Bohr mag/cell

     iteration # 54     ecut=    60.00 Ry     beta= 0.70
     Davidson diagonalization with overlap
     ethr =  9.80E-07,  avg # of iterations =  1.0

     negative rho (up, down):  0.000E+00 7.014E-04

     total cpu time spent up to now is      483.0 secs

     total energy              =    -426.99240568 Ry
     Harris-Foulkes estimate   =    -426.99239214 Ry
     estimated scf accuracy    <       0.00079945 Ry

     total magnetization       =     8.00 Bohr mag/cell
     absolute magnetization    =     8.79 Bohr mag/cell

     iteration # 55     ecut=    60.00 Ry     beta= 0.70
     Davidson diagonalization with overlap
     ethr =  9.80E-07,  avg # of iterations =  1.0

     negative rho (up, down):  0.000E+00 7.014E-04

     total cpu time spent up to now is      490.7 secs

     total energy              =    -426.99240663 Ry
     Harris-Foulkes estimate   =    -426.99240796 Ry
     estimated scf accuracy    <       0.00107103 Ry

     total magnetization       =     8.00 Bohr mag/cell
     absolute magnetization    =     8.79 Bohr mag/cell

     iteration # 56     ecut=    60.00 Ry     beta= 0.70
     Davidson diagonalization with overlap
     ethr =  9.80E-07,  avg # of iterations =  1.0

     negative rho (up, down):  0.000E+00 6.319E-04

     total cpu time spent up to now is      498.3 secs

     total energy              =    -426.99236730 Ry
     Harris-Foulkes estimate   =    -426.99240717 Ry
     estimated scf accuracy    <       0.00100322 Ry

     total magnetization       =     8.00 Bohr mag/cell
     absolute magnetization    =     8.79 Bohr mag/cell

     iteration # 57     ecut=    60.00 Ry     beta= 0.70
     Davidson diagonalization with overlap
     ethr =  9.80E-07,  avg # of iterations =  1.0

     negative rho (up, down):  0.000E+00 6.319E-04

     total cpu time spent up to now is      506.2 secs

     total energy              =    -426.99237830 Ry
     Harris-Foulkes estimate   =    -426.99237488 Ry
     estimated scf accuracy    <       0.00044633 Ry

     total magnetization       =     8.00 Bohr mag/cell
     absolute magnetization    =     8.78 Bohr mag/cell

     iteration # 58     ecut=    60.00 Ry     beta= 0.70
     Davidson diagonalization with overlap
     ethr =  9.80E-07,  avg # of iterations =  1.0

     negative rho (up, down):  0.000E+00 5.625E-04

     total cpu time spent up to now is      514.4 secs

     total energy              =    -426.99231340 Ry
     Harris-Foulkes estimate   =    -426.99238037 Ry
     estimated scf accuracy    <       0.00067574 Ry

     total magnetization       =     8.00 Bohr mag/cell
     absolute magnetization    =     8.79 Bohr mag/cell

     iteration # 59     ecut=    60.00 Ry     beta= 0.70
     Davidson diagonalization with overlap
     ethr =  9.80E-07,  avg # of iterations =  4.8

     negative rho (up, down):  0.000E+00 6.319E-04

     total cpu time spent up to now is      524.0 secs

     total energy              =    -426.99228911 Ry
     Harris-Foulkes estimate   =    -426.99247977 Ry
     estimated scf accuracy    <       0.01103912 Ry

     total magnetization       =     8.00 Bohr mag/cell
     absolute magnetization    =     8.84 Bohr mag/cell

     iteration # 60     ecut=    60.00 Ry     beta= 0.70
     Davidson diagonalization with overlap
     ethr =  9.80E-07,  avg # of iterations =  3.9

     negative rho (up, down):  0.000E+00 6.319E-04

     total cpu time spent up to now is      533.2 secs

     total energy              =    -426.99234018 Ry
     Harris-Foulkes estimate   =    -426.99235265 Ry
     estimated scf accuracy    <       0.00267999 Ry

     total magnetization       =     8.00 Bohr mag/cell
     absolute magnetization    =     8.82 Bohr mag/cell

     iteration # 61     ecut=    60.00 Ry     beta= 0.70
     Davidson diagonalization with overlap
     ethr =  9.80E-07,  avg # of iterations =  1.0

     negative rho (up, down):  0.000E+00 6.319E-04

     total cpu time spent up to now is      540.4 secs

     total energy              =    -426.99232603 Ry
     Harris-Foulkes estimate   =    -426.99234104 Ry
     estimated scf accuracy    <       0.00260157 Ry

     total magnetization       =     8.00 Bohr mag/cell
     absolute magnetization    =     8.82 Bohr mag/cell

     iteration # 62     ecut=    60.00 Ry     beta= 0.70
     Davidson diagonalization with overlap
     ethr =  9.80E-07,  avg # of iterations =  1.0

     negative rho (up, down):  0.000E+00 6.319E-04

     total cpu time spent up to now is      547.8 secs

     total energy              =    -426.99230962 Ry
     Harris-Foulkes estimate   =    -426.99232895 Ry
     estimated scf accuracy    <       0.00205395 Ry

     total magnetization       =     8.00 Bohr mag/cell
     absolute magnetization    =     8.82 Bohr mag/cell

     iteration # 63     ecut=    60.00 Ry     beta= 0.70
     Davidson diagonalization with overlap
     ethr =  9.80E-07,  avg # of iterations =  1.0

     negative rho (up, down):  0.000E+00 6.319E-04

     total cpu time spent up to now is      555.6 secs

     total energy              =    -426.99231463 Ry
     Harris-Foulkes estimate   =    -426.99231486 Ry
     estimated scf accuracy    <       0.00146864 Ry

     total magnetization       =     8.00 Bohr mag/cell
     absolute magnetization    =     8.82 Bohr mag/cell

     iteration # 64     ecut=    60.00 Ry     beta= 0.70
     Davidson diagonalization with overlap
     ethr =  9.80E-07,  avg # of iterations =  1.0

     negative rho (up, down):  0.000E+00 6.597E-04

     total cpu time spent up to now is      563.5 secs

     total energy              =    -426.99230300 Ry
     Harris-Foulkes estimate   =    -426.99231559 Ry
     estimated scf accuracy    <       0.00131905 Ry

     total magnetization       =     8.00 Bohr mag/cell
     absolute magnetization    =     8.82 Bohr mag/cell

     iteration # 65     ecut=    60.00 Ry     beta= 0.70
     Davidson diagonalization with overlap
     ethr =  9.80E-07,  avg # of iterations =  1.9

     negative rho (up, down):  0.000E+00 6.597E-04

     total cpu time spent up to now is      570.8 secs

     total energy              =    -426.99242012 Ry
     Harris-Foulkes estimate   =    -426.99242831 Ry
     estimated scf accuracy    <       0.00526892 Ry

     total magnetization       =     8.00 Bohr mag/cell
     absolute magnetization    =     8.78 Bohr mag/cell

     iteration # 66     ecut=    60.00 Ry     beta= 0.70
     Davidson diagonalization with overlap
     ethr =  9.80E-07,  avg # of iterations =  1.0

     negative rho (up, down):  0.000E+00 6.319E-04

     total cpu time spent up to now is      578.6 secs

     total energy              =    -426.99238887 Ry
     Harris-Foulkes estimate   =    -426.99242146 Ry
     estimated scf accuracy    <       0.00473772 Ry

     total magnetization       =     8.00 Bohr mag/cell
     absolute magnetization    =     8.78 Bohr mag/cell

     iteration # 67     ecut=    60.00 Ry     beta= 0.70
     Davidson diagonalization with overlap
     ethr =  9.80E-07,  avg # of iterations =  1.0

     negative rho (up, down):  0.000E+00 6.597E-04

     total cpu time spent up to now is      586.1 secs

     total energy              =    -426.99240164 Ry
     Harris-Foulkes estimate   =    -426.99239259 Ry
     estimated scf accuracy    <       0.00378315 Ry

     total magnetization       =     8.00 Bohr mag/cell
     absolute magnetization    =     8.78 Bohr mag/cell

     iteration # 68     ecut=    60.00 Ry     beta= 0.70
     Davidson diagonalization with overlap
     ethr =  9.80E-07,  avg # of iterations =  1.0

     negative rho (up, down):  0.000E+00 6.319E-04

     total cpu time spent up to now is      593.2 secs

     total energy              =    -426.99241995 Ry
     Harris-Foulkes estimate   =    -426.99240262 Ry
     estimated scf accuracy    <       0.00414243 Ry

     total magnetization       =     8.00 Bohr mag/cell
     absolute magnetization    =     8.78 Bohr mag/cell

     iteration # 69     ecut=    60.00 Ry     beta= 0.70
     Davidson diagonalization with overlap
     ethr =  9.80E-07,  avg # of iterations =  1.0

     negative rho (up, down):  0.000E+00 6.458E-04

     total cpu time spent up to now is      600.3 secs

     total energy              =    -426.99243257 Ry
     Harris-Foulkes estimate   =    -426.99242360 Ry
     estimated scf accuracy    <       0.00521685 Ry

     total magnetization       =     8.00 Bohr mag/cell
     absolute magnetization    =     8.78 Bohr mag/cell

     iteration # 70     ecut=    60.00 Ry     beta= 0.70
     Davidson diagonalization with overlap
     ethr =  9.80E-07,  avg # of iterations =  1.0

     negative rho (up, down):  0.000E+00 6.458E-04

     total cpu time spent up to now is      607.9 secs

     total energy              =    -426.99243578 Ry
     Harris-Foulkes estimate   =    -426.99243480 Ry
     estimated scf accuracy    <       0.00562362 Ry

     total magnetization       =     8.00 Bohr mag/cell
     absolute magnetization    =     8.78 Bohr mag/cell

     iteration # 71     ecut=    60.00 Ry     beta= 0.70
     Davidson diagonalization with overlap
     ethr =  9.80E-07,  avg # of iterations =  1.0

     negative rho (up, down):  0.000E+00 6.319E-04

     total cpu time spent up to now is      615.5 secs

     total energy              =    -426.99242898 Ry
     Harris-Foulkes estimate   =    -426.99243635 Ry
     estimated scf accuracy    <       0.00569027 Ry

     total magnetization       =     8.00 Bohr mag/cell
     absolute magnetization    =     8.78 Bohr mag/cell

     iteration # 72     ecut=    60.00 Ry     beta= 0.70
     Davidson diagonalization with overlap
     ethr =  9.80E-07,  avg # of iterations =  1.0

     negative rho (up, down):  0.000E+00 6.319E-04

     total cpu time spent up to now is      622.9 secs

     total energy              =    -426.99242898 Ry
     Harris-Foulkes estimate   =    -426.99242921 Ry
     estimated scf accuracy    <       0.00554765 Ry

     total magnetization       =     8.00 Bohr mag/cell
     absolute magnetization    =     8.78 Bohr mag/cell

     iteration # 73     ecut=    60.00 Ry     beta= 0.70
     Davidson diagonalization with overlap
     ethr =  9.80E-07,  avg # of iterations =  1.0

     negative rho (up, down):  0.000E+00 5.833E-04

     total cpu time spent up to now is      630.5 secs

     total energy              =    -426.99190354 Ry
     Harris-Foulkes estimate   =    -426.99242913 Ry
     estimated scf accuracy    <       0.00557957 Ry

     total magnetization       =     8.00 Bohr mag/cell
     absolute magnetization    =     8.78 Bohr mag/cell

     iteration # 74     ecut=    60.00 Ry     beta= 0.70
     Davidson diagonalization with overlap
     ethr =  9.80E-07,  avg # of iterations =  4.8

     negative rho (up, down):  0.000E+00 6.181E-04

     total cpu time spent up to now is      640.8 secs

     total energy              =    -426.99213737 Ry
     Harris-Foulkes estimate   =    -426.99243219 Ry
     estimated scf accuracy    <       0.01245204 Ry

     total magnetization       =     8.00 Bohr mag/cell
     absolute magnetization    =     8.83 Bohr mag/cell

     iteration # 75     ecut=    60.00 Ry     beta= 0.70
     Davidson diagonalization with overlap
     ethr =  9.80E-07,  avg # of iterations =  5.2

     negative rho (up, down):  0.000E+00 6.319E-04

     total cpu time spent up to now is      650.4 secs

     total energy              =    -426.99235918 Ry
     Harris-Foulkes estimate   =    -426.99239867 Ry
     estimated scf accuracy    <       0.00208327 Ry

     total magnetization       =     8.00 Bohr mag/cell
     absolute magnetization    =     8.78 Bohr mag/cell

     iteration # 76     ecut=    60.00 Ry     beta= 0.70
     Davidson diagonalization with overlap
     ethr =  9.80E-07,  avg # of iterations =  1.0

     negative rho (up, down):  0.000E+00 6.042E-04

     total cpu time spent up to now is      658.4 secs

     total energy              =    -426.99231935 Ry
     Harris-Foulkes estimate   =    -426.99236069 Ry
     estimated scf accuracy    <       0.00256614 Ry

     total magnetization       =     8.00 Bohr mag/cell
     absolute magnetization    =     8.78 Bohr mag/cell

     iteration # 77     ecut=    60.00 Ry     beta= 0.70
     Davidson diagonalization with overlap
     ethr =  9.80E-07,  avg # of iterations =  1.0

     negative rho (up, down):  0.000E+00 6.042E-04

     total cpu time spent up to now is      665.7 secs

     total energy              =    -426.99231959 Ry
     Harris-Foulkes estimate   =    -426.99232283 Ry
     estimated scf accuracy    <       0.00200631 Ry

     total magnetization       =     8.00 Bohr mag/cell
     absolute magnetization    =     8.78 Bohr mag/cell

     iteration # 78     ecut=    60.00 Ry     beta= 0.70
     Davidson diagonalization with overlap
     ethr =  9.80E-07,  avg # of iterations =  1.0

     negative rho (up, down):  0.000E+00 6.042E-04

     total cpu time spent up to now is      673.3 secs

     total energy              =    -426.99232456 Ry
     Harris-Foulkes estimate   =    -426.99232150 Ry
     estimated scf accuracy    <       0.00185056 Ry

     total magnetization       =     8.00 Bohr mag/cell
     absolute magnetization    =     8.78 Bohr mag/cell

     iteration # 79     ecut=    60.00 Ry     beta= 0.70
     Davidson diagonalization with overlap
     ethr =  9.80E-07,  avg # of iterations =  1.0

     negative rho (up, down):  0.000E+00 6.042E-04

     total cpu time spent up to now is      680.6 secs

     total energy              =    -426.99232055 Ry
     Harris-Foulkes estimate   =    -426.99232518 Ry
     estimated scf accuracy    <       0.00185209 Ry

     total magnetization       =     8.00 Bohr mag/cell
     absolute magnetization    =     8.78 Bohr mag/cell

     iteration # 80     ecut=    60.00 Ry     beta= 0.70
     Davidson diagonalization with overlap
     ethr =  9.80E-07,  avg # of iterations =  1.0

     negative rho (up, down):  0.000E+00 6.042E-04

     total cpu time spent up to now is      687.8 secs

     total energy              =    -426.99236512 Ry
     Harris-Foulkes estimate   =    -426.99232109 Ry
     estimated scf accuracy    <       0.00182991 Ry

     total magnetization       =     8.00 Bohr mag/cell
     absolute magnetization    =     8.78 Bohr mag/cell

     iteration # 81     ecut=    60.00 Ry     beta= 0.70
     Davidson diagonalization with overlap
     ethr =  9.80E-07,  avg # of iterations =  1.0

     negative rho (up, down):  0.000E+00 6.042E-04

     total cpu time spent up to now is      695.6 secs

     total energy              =    -426.99235432 Ry
     Harris-Foulkes estimate   =    -426.99236945 Ry
     estimated scf accuracy    <       0.00244242 Ry

     total magnetization       =     8.00 Bohr mag/cell
     absolute magnetization    =     8.78 Bohr mag/cell

     iteration # 82     ecut=    60.00 Ry     beta= 0.70
     Davidson diagonalization with overlap
     ethr =  9.80E-07,  avg # of iterations =  1.0

     negative rho (up, down):  0.000E+00 5.625E-04

     total cpu time spent up to now is      703.8 secs

     total energy              =    -426.99233283 Ry
     Harris-Foulkes estimate   =    -426.99235536 Ry
     estimated scf accuracy    <       0.00240960 Ry

     total magnetization       =     8.00 Bohr mag/cell
     absolute magnetization    =     8.78 Bohr mag/cell

     iteration # 83     ecut=    60.00 Ry     beta= 0.70
     Davidson diagonalization with overlap
     ethr =  9.80E-07,  avg # of iterations =  1.0

     negative rho (up, down):  0.000E+00 6.597E-04

     total cpu time spent up to now is      711.6 secs

     total energy              =    -426.99221704 Ry
     Harris-Foulkes estimate   =    -426.99234187 Ry
     estimated scf accuracy    <       0.00125501 Ry

     total magnetization       =     8.00 Bohr mag/cell
     absolute magnetization    =     8.78 Bohr mag/cell

     iteration # 84     ecut=    60.00 Ry     beta= 0.70
     Davidson diagonalization with overlap
     ethr =  9.80E-07,  avg # of iterations =  4.8

     negative rho (up, down):  0.000E+00 5.625E-04

     total cpu time spent up to now is      721.3 secs

     total energy              =    -426.99227101 Ry
     Harris-Foulkes estimate   =    -426.99241325 Ry
     estimated scf accuracy    <       0.01037985 Ry

     total magnetization       =     8.00 Bohr mag/cell
     absolute magnetization    =     8.82 Bohr mag/cell

     iteration # 85     ecut=    60.00 Ry     beta= 0.70
     Davidson diagonalization with overlap
     ethr =  9.80E-07,  avg # of iterations =  3.0

     negative rho (up, down):  0.000E+00 5.903E-04

     total cpu time spent up to now is      730.5 secs

     total energy              =    -426.99229427 Ry
     Harris-Foulkes estimate   =    -426.99234000 Ry
     estimated scf accuracy    <       0.00542223 Ry

     total magnetization       =     8.00 Bohr mag/cell
     absolute magnetization    =     8.82 Bohr mag/cell

     iteration # 86     ecut=    60.00 Ry     beta= 0.70
     Davidson diagonalization with overlap
     ethr =  9.80E-07,  avg # of iterations =  3.6

     negative rho (up, down):  0.000E+00 5.903E-04

     total cpu time spent up to now is      739.3 secs

     total energy              =    -426.99235714 Ry
     Harris-Foulkes estimate   =    -426.99235807 Ry
     estimated scf accuracy    <       0.00047741 Ry

     total magnetization       =     8.00 Bohr mag/cell
     absolute magnetization    =     8.81 Bohr mag/cell

     iteration # 87     ecut=    60.00 Ry     beta= 0.70
     Davidson diagonalization with overlap
     ethr =  9.80E-07,  avg # of iterations =  1.0

     negative rho (up, down):  0.000E+00 5.903E-04

     total cpu time spent up to now is      747.2 secs

     total energy              =    -426.99235651 Ry
     Harris-Foulkes estimate   =    -426.99235816 Ry
     estimated scf accuracy    <       0.00046457 Ry

     total magnetization       =     8.00 Bohr mag/cell
     absolute magnetization    =     8.81 Bohr mag/cell

     iteration # 88     ecut=    60.00 Ry     beta= 0.70
     Davidson diagonalization with overlap
     ethr =  9.80E-07,  avg # of iterations =  1.0

     negative rho (up, down):  0.000E+00 6.181E-04

     total cpu time spent up to now is      755.1 secs

     total energy              =    -426.99233095 Ry
     Harris-Foulkes estimate   =    -426.99235723 Ry
     estimated scf accuracy    <       0.00038443 Ry

     total magnetization       =     8.00 Bohr mag/cell
     absolute magnetization    =     8.81 Bohr mag/cell

     iteration # 89     ecut=    60.00 Ry     beta= 0.70
     Davidson diagonalization with overlap
     ethr =  9.80E-07,  avg # of iterations =  2.4

     negative rho (up, down):  0.000E+00 6.181E-04

     total cpu time spent up to now is      763.3 secs

     total energy              =    -426.99243090 Ry
     Harris-Foulkes estimate   =    -426.99246454 Ry
     estimated scf accuracy    <       0.00934232 Ry

     total magnetization       =     8.00 Bohr mag/cell
     absolute magnetization    =     8.78 Bohr mag/cell

     iteration # 90     ecut=    60.00 Ry     beta= 0.70
     Davidson diagonalization with overlap
     ethr =  9.80E-07,  avg # of iterations =  1.0

     negative rho (up, down):  0.000E+00 6.181E-04

     total cpu time spent up to now is      771.0 secs

     total energy              =    -426.99244000 Ry
     Harris-Foulkes estimate   =    -426.99243463 Ry
     estimated scf accuracy    <       0.00839431 Ry

     total magnetization       =     8.00 Bohr mag/cell
     absolute magnetization    =     8.78 Bohr mag/cell

     iteration # 91     ecut=    60.00 Ry     beta= 0.70
     Davidson diagonalization with overlap
     ethr =  9.80E-07,  avg # of iterations =  1.0

     negative rho (up, down):  0.000E+00 6.042E-04

     total cpu time spent up to now is      778.8 secs

     total energy              =    -426.99237783 Ry
     Harris-Foulkes estimate   =    -426.99244054 Ry
     estimated scf accuracy    <       0.00846976 Ry

     total magnetization       =     8.00 Bohr mag/cell
     absolute magnetization    =     8.78 Bohr mag/cell

     iteration # 92     ecut=    60.00 Ry     beta= 0.70
     Davidson diagonalization with overlap
     ethr =  9.80E-07,  avg # of iterations =  1.0

     negative rho (up, down):  0.000E+00 6.042E-04

     total cpu time spent up to now is      786.6 secs

     total energy              =    -426.99240727 Ry
     Harris-Foulkes estimate   =    -426.99238362 Ry
     estimated scf accuracy    <       0.00691981 Ry

     total magnetization       =     8.00 Bohr mag/cell
     absolute magnetization    =     8.78 Bohr mag/cell

     iteration # 93     ecut=    60.00 Ry     beta= 0.70
     Davidson diagonalization with overlap
     ethr =  9.80E-07,  avg # of iterations =  1.0

     negative rho (up, down):  0.000E+00 6.042E-04

     total cpu time spent up to now is      794.6 secs

     total energy              =    -426.99238555 Ry
     Harris-Foulkes estimate   =    -426.99240912 Ry
     estimated scf accuracy    <       0.00778135 Ry

     total magnetization       =     8.00 Bohr mag/cell
     absolute magnetization    =     8.78 Bohr mag/cell

     iteration # 94     ecut=    60.00 Ry     beta= 0.70
     Davidson diagonalization with overlap
     ethr =  9.80E-07,  avg # of iterations =  1.0

     negative rho (up, down):  0.000E+00 6.042E-04

     total cpu time spent up to now is      802.7 secs

     total energy              =    -426.99239384 Ry
     Harris-Foulkes estimate   =    -426.99238676 Ry
     estimated scf accuracy    <       0.00707901 Ry

     total magnetization       =     8.00 Bohr mag/cell
     absolute magnetization    =     8.78 Bohr mag/cell

     iteration # 95     ecut=    60.00 Ry     beta= 0.70
     Davidson diagonalization with overlap
     ethr =  9.80E-07,  avg # of iterations =  1.0

     negative rho (up, down):  0.000E+00 6.181E-04

     total cpu time spent up to now is      810.9 secs

     total energy              =    -426.99242375 Ry
     Harris-Foulkes estimate   =    -426.99239423 Ry
     estimated scf accuracy    <       0.00738100 Ry

     total magnetization       =     8.00 Bohr mag/cell
     absolute magnetization    =     8.78 Bohr mag/cell

     iteration # 96     ecut=    60.00 Ry     beta= 0.70
     Davidson diagonalization with overlap
     ethr =  9.80E-07,  avg # of iterations =  1.0

     negative rho (up, down):  0.000E+00 6.319E-04

     total cpu time spent up to now is      819.1 secs

     total energy              =    -426.99242781 Ry
     Harris-Foulkes estimate   =    -426.99242875 Ry
     estimated scf accuracy    <       0.00907317 Ry

     total magnetization       =     8.00 Bohr mag/cell
     absolute magnetization    =     8.78 Bohr mag/cell

     iteration # 97     ecut=    60.00 Ry     beta= 0.70
     Davidson diagonalization with overlap
     ethr =  9.80E-07,  avg # of iterations =  1.0

     negative rho (up, down):  0.000E+00 5.625E-04

     total cpu time spent up to now is      827.2 secs

     total energy              =    -426.99148851 Ry
     Harris-Foulkes estimate   =    -426.99242875 Ry
     estimated scf accuracy    <       0.00892262 Ry

     total magnetization       =     8.00 Bohr mag/cell
     absolute magnetization    =     8.78 Bohr mag/cell

     iteration # 98     ecut=    60.00 Ry     beta= 0.70
     Davidson diagonalization with overlap
     ethr =  9.80E-07,  avg # of iterations =  5.4

     negative rho (up, down):  0.000E+00 6.319E-04

     total cpu time spent up to now is      838.9 secs

     total energy              =    -426.99178077 Ry
     Harris-Foulkes estimate   =    -426.99296107 Ry
     estimated scf accuracy    <       0.04766005 Ry

     total magnetization       =     8.00 Bohr mag/cell
     absolute magnetization    =     8.91 Bohr mag/cell

     iteration # 99     ecut=    60.00 Ry     beta= 0.70
     Davidson diagonalization with overlap
     ethr =  9.80E-07,  avg # of iterations =  4.9

     negative rho (up, down):  0.000E+00 6.181E-04

     total cpu time spent up to now is      850.4 secs

     total energy              =    -426.99238471 Ry
     Harris-Foulkes estimate   =    -426.99238198 Ry
     estimated scf accuracy    <       0.00085186 Ry

     total magnetization       =     8.00 Bohr mag/cell
     absolute magnetization    =     8.81 Bohr mag/cell

     iteration #100     ecut=    60.00 Ry     beta= 0.70
     Davidson diagonalization with overlap
     ethr =  9.80E-07,  avg # of iterations =  1.0

     negative rho (up, down):  0.000E+00 5.903E-04

     Magnetic moment per site:
     atom:    1    charge:   14.9983    magn:    4.2223    constr:    0.0000
     atom:    2    charge:   14.9168    magn:    3.8156    constr:    0.0000

     total cpu time spent up to now is      858.6 secs

     total energy              =    -426.99236645 Ry
     Harris-Foulkes estimate   =    -426.99238538 Ry
     estimated scf accuracy    <       0.00089683 Ry

     total magnetization       =     8.00 Bohr mag/cell
     absolute magnetization    =     8.81 Bohr mag/cell

     iteration #101     ecut=    60.00 Ry     beta= 0.70
     Davidson diagonalization with overlap
     ethr =  9.80E-07,  avg # of iterations =  1.0

     negative rho (up, down):  0.000E+00 6.042E-04

     total cpu time spent up to now is      866.7 secs

     total energy              =    -426.99236483 Ry
     Harris-Foulkes estimate   =    -426.99237073 Ry
     estimated scf accuracy    <       0.00049035 Ry

     total magnetization       =     8.00 Bohr mag/cell
     absolute magnetization    =     8.81 Bohr mag/cell

     iteration #102     ecut=    60.00 Ry     beta= 0.70
     Davidson diagonalization with overlap
     ethr =  9.80E-07,  avg # of iterations =  1.0

     negative rho (up, down):  0.000E+00 5.903E-04

     total cpu time spent up to now is      874.8 secs

     total energy              =    -426.99236717 Ry
     Harris-Foulkes estimate   =    -426.99236700 Ry
     estimated scf accuracy    <       0.00041047 Ry

     total magnetization       =     8.00 Bohr mag/cell
     absolute magnetization    =     8.81 Bohr mag/cell

     iteration #103     ecut=    60.00 Ry     beta= 0.70
     Davidson diagonalization with overlap
     ethr =  9.80E-07,  avg # of iterations =  1.0

     negative rho (up, down):  0.000E+00 6.042E-04

     total cpu time spent up to now is      882.9 secs

     total energy              =    -426.99236751 Ry
     Harris-Foulkes estimate   =    -426.99236777 Ry
     estimated scf accuracy    <       0.00040801 Ry

     total magnetization       =     8.00 Bohr mag/cell
     absolute magnetization    =     8.81 Bohr mag/cell

     iteration #104     ecut=    60.00 Ry     beta= 0.70
     Davidson diagonalization with overlap
     ethr =  9.80E-07,  avg # of iterations =  1.0

     negative rho (up, down):  0.000E+00 5.903E-04

     total cpu time spent up to now is      891.3 secs

     total energy              =    -426.99236836 Ry
     Harris-Foulkes estimate   =    -426.99236809 Ry
     estimated scf accuracy    <       0.00035550 Ry

     total magnetization       =     8.00 Bohr mag/cell
     absolute magnetization    =     8.81 Bohr mag/cell

     iteration #105     ecut=    60.00 Ry     beta= 0.70
     Davidson diagonalization with overlap
     ethr =  9.80E-07,  avg # of iterations =  1.0

     negative rho (up, down):  0.000E+00 5.903E-04

     total cpu time spent up to now is      899.5 secs

     total energy              =    -426.99236733 Ry
     Harris-Foulkes estimate   =    -426.99236858 Ry
     estimated scf accuracy    <       0.00038806 Ry

     total magnetization       =     8.00 Bohr mag/cell
     absolute magnetization    =     8.81 Bohr mag/cell

     iteration #106     ecut=    60.00 Ry     beta= 0.70
     Davidson diagonalization with overlap
     ethr =  9.80E-07,  avg # of iterations =  1.0

     negative rho (up, down):  0.000E+00 5.903E-04

     total cpu time spent up to now is      907.7 secs

     total energy              =    -426.99236025 Ry
     Harris-Foulkes estimate   =    -426.99236753 Ry
     estimated scf accuracy    <       0.00034880 Ry

     total magnetization       =     8.00 Bohr mag/cell
     absolute magnetization    =     8.81 Bohr mag/cell

     iteration #107     ecut=    60.00 Ry     beta= 0.70
     Davidson diagonalization with overlap
     ethr =  9.80E-07,  avg # of iterations =  1.0

     negative rho (up, down):  0.000E+00 6.319E-04

     total cpu time spent up to now is      916.3 secs

     total energy              =    -426.99234617 Ry
     Harris-Foulkes estimate   =    -426.99236272 Ry
     estimated scf accuracy    <       0.00016671 Ry

     total magnetization       =     8.00 Bohr mag/cell
     absolute magnetization    =     8.81 Bohr mag/cell

     iteration #108     ecut=    60.00 Ry     beta= 0.70
     Davidson diagonalization with overlap
     ethr =  5.56E-07,  avg # of iterations =  4.1

     negative rho (up, down):  0.000E+00 6.042E-04

     total cpu time spent up to now is      926.0 secs

     total energy              =    -426.99233052 Ry
     Harris-Foulkes estimate   =    -426.99245457 Ry
     estimated scf accuracy    <       0.01224667 Ry

     total magnetization       =     8.00 Bohr mag/cell
     absolute magnetization    =     8.78 Bohr mag/cell

     iteration #109     ecut=    60.00 Ry     beta= 0.70
     Davidson diagonalization with overlap
     ethr =  5.56E-07,  avg # of iterations =  2.5

     negative rho (up, down):  0.000E+00 6.042E-04

     total cpu time spent up to now is      935.0 secs

     total energy              =    -426.99235071 Ry
     Harris-Foulkes estimate   =    -426.99235157 Ry
     estimated scf accuracy    <       0.00907947 Ry

     total magnetization       =     8.00 Bohr mag/cell
     absolute magnetization    =     8.78 Bohr mag/cell

     iteration #110     ecut=    60.00 Ry     beta= 0.70
     Davidson diagonalization with overlap
     ethr =  5.56E-07,  avg # of iterations =  1.0

     negative rho (up, down):  0.000E+00 6.042E-04

     total cpu time spent up to now is      942.5 secs

     total energy              =    -426.99236951 Ry
     Harris-Foulkes estimate   =    -426.99235127 Ry
     estimated scf accuracy    <       0.00904083 Ry

     total magnetization       =     8.00 Bohr mag/cell
     absolute magnetization    =     8.78 Bohr mag/cell

     iteration #111     ecut=    60.00 Ry     beta= 0.70
     Davidson diagonalization with overlap
     ethr =  5.56E-07,  avg # of iterations =  1.0

     negative rho (up, down):  0.000E+00 6.042E-04

     total cpu time spent up to now is      950.5 secs

     total energy              =    -426.99236423 Ry
     Harris-Foulkes estimate   =    -426.99237024 Ry
     estimated scf accuracy    <       0.00963894 Ry

     total magnetization       =     8.00 Bohr mag/cell
     absolute magnetization    =     8.78 Bohr mag/cell

     iteration #112     ecut=    60.00 Ry     beta= 0.70
     Davidson diagonalization with overlap
     ethr =  5.56E-07,  avg # of iterations =  1.0

     negative rho (up, down):  0.000E+00 6.042E-04

     total cpu time spent up to now is      957.9 secs

     total energy              =    -426.99236457 Ry
     Harris-Foulkes estimate   =    -426.99236463 Ry
     estimated scf accuracy    <       0.00918327 Ry

     total magnetization       =     8.00 Bohr mag/cell
     absolute magnetization    =     8.78 Bohr mag/cell

     iteration #113     ecut=    60.00 Ry     beta= 0.70
     Davidson diagonalization with overlap
     ethr =  5.56E-07,  avg # of iterations =  1.0

     negative rho (up, down):  0.000E+00 6.042E-04

     total cpu time spent up to now is      965.2 secs

     total energy              =    -426.99236298 Ry
     Harris-Foulkes estimate   =    -426.99236474 Ry
     estimated scf accuracy    <       0.00921988 Ry

     total magnetization       =     8.00 Bohr mag/cell
     absolute magnetization    =     8.78 Bohr mag/cell

     iteration #114     ecut=    60.00 Ry     beta= 0.70
     Davidson diagonalization with overlap
     ethr =  5.56E-07,  avg # of iterations =  1.0

     negative rho (up, down):  0.000E+00 6.042E-04

     total cpu time spent up to now is      972.5 secs

     total energy              =    -426.99235545 Ry
     Harris-Foulkes estimate   =    -426.99236314 Ry
     estimated scf accuracy    <       0.00914331 Ry

     total magnetization       =     8.00 Bohr mag/cell
     absolute magnetization    =     8.78 Bohr mag/cell

     iteration #115     ecut=    60.00 Ry     beta= 0.70
     Davidson diagonalization with overlap
     ethr =  5.56E-07,  avg # of iterations =  1.0

     negative rho (up, down):  0.000E+00 6.042E-04

     total cpu time spent up to now is      979.7 secs

     total energy              =    -426.99228915 Ry
     Harris-Foulkes estimate   =    -426.99235564 Ry
     estimated scf accuracy    <       0.00935279 Ry

     total magnetization       =     8.00 Bohr mag/cell
     absolute magnetization    =     8.78 Bohr mag/cell

     iteration #116     ecut=    60.00 Ry     beta= 0.70
     Davidson diagonalization with overlap
     ethr =  5.56E-07,  avg # of iterations =  3.6

     negative rho (up, down):  0.000E+00 5.903E-04

     total cpu time spent up to now is      987.2 secs

     total energy              =    -426.99236010 Ry
     Harris-Foulkes estimate   =    -426.99237799 Ry
     estimated scf accuracy    <       0.00032336 Ry

     total magnetization       =     8.00 Bohr mag/cell
     absolute magnetization    =     8.80 Bohr mag/cell

     iteration #117     ecut=    60.00 Ry     beta= 0.70
     Davidson diagonalization with overlap
     ethr =  5.56E-07,  avg # of iterations =  1.0

     negative rho (up, down):  0.000E+00 5.903E-04

     total cpu time spent up to now is      994.4 secs

     total energy              =    -426.99236918 Ry
     Harris-Foulkes estimate   =    -426.99236777 Ry
     estimated scf accuracy    <       0.00005087 Ry

     total magnetization       =     8.00 Bohr mag/cell
     absolute magnetization    =     8.80 Bohr mag/cell

     iteration #118     ecut=    60.00 Ry     beta= 0.70
     Davidson diagonalization with overlap
     ethr =  1.70E-07,  avg # of iterations =  1.0

     negative rho (up, down):  0.000E+00 5.903E-04

     total cpu time spent up to now is     1001.7 secs

     total energy              =    -426.99236889 Ry
     Harris-Foulkes estimate   =    -426.99236984 Ry
     estimated scf accuracy    <       0.00009351 Ry

     total magnetization       =     8.00 Bohr mag/cell
     absolute magnetization    =     8.80 Bohr mag/cell

     iteration #119     ecut=    60.00 Ry     beta= 0.70
     Davidson diagonalization with overlap
     ethr =  1.70E-07,  avg # of iterations =  1.0

     negative rho (up, down):  0.000E+00 5.903E-04

     total cpu time spent up to now is     1009.0 secs

     total energy              =    -426.99237072 Ry
     Harris-Foulkes estimate   =    -426.99236933 Ry
     estimated scf accuracy    <       0.00006775 Ry

     total magnetization       =     8.00 Bohr mag/cell
     absolute magnetization    =     8.80 Bohr mag/cell

     iteration #120     ecut=    60.00 Ry     beta= 0.70
     Davidson diagonalization with overlap
     ethr =  1.70E-07,  avg # of iterations =  1.0

     negative rho (up, down):  0.000E+00 5.903E-04

     total cpu time spent up to now is     1016.3 secs

     total energy              =    -426.99237185 Ry
     Harris-Foulkes estimate   =    -426.99237121 Ry
     estimated scf accuracy    <       0.00011287 Ry

     total magnetization       =     8.00 Bohr mag/cell
     absolute magnetization    =     8.80 Bohr mag/cell

     iteration #121     ecut=    60.00 Ry     beta= 0.70
     Davidson diagonalization with overlap
     ethr =  1.70E-07,  avg # of iterations =  1.0

     negative rho (up, down):  0.000E+00 5.903E-04

     total cpu time spent up to now is     1023.6 secs

     total energy              =    -426.99237340 Ry
     Harris-Foulkes estimate   =    -426.99237207 Ry
     estimated scf accuracy    <       0.00012105 Ry

     total magnetization       =     8.00 Bohr mag/cell
     absolute magnetization    =     8.80 Bohr mag/cell

     iteration #122     ecut=    60.00 Ry     beta= 0.70
     Davidson diagonalization with overlap
     ethr =  1.70E-07,  avg # of iterations =  1.0

     negative rho (up, down):  0.000E+00 5.903E-04

     total cpu time spent up to now is     1031.0 secs

     total energy              =    -426.99237644 Ry
     Harris-Foulkes estimate   =    -426.99237369 Ry
     estimated scf accuracy    <       0.00016171 Ry

     total magnetization       =     8.00 Bohr mag/cell
     absolute magnetization    =     8.80 Bohr mag/cell

     iteration #123     ecut=    60.00 Ry     beta= 0.70
     Davidson diagonalization with overlap
     ethr =  1.70E-07,  avg # of iterations =  1.0

     negative rho (up, down):  0.000E+00 6.042E-04

     total cpu time spent up to now is     1038.2 secs

     total energy              =    -426.99237469 Ry
     Harris-Foulkes estimate   =    -426.99237760 Ry
     estimated scf accuracy    <       0.00025734 Ry

     total magnetization       =     8.00 Bohr mag/cell
     absolute magnetization    =     8.80 Bohr mag/cell

     iteration #124     ecut=    60.00 Ry     beta= 0.70
     Davidson diagonalization with overlap
     ethr =  1.70E-07,  avg # of iterations =  1.0

     negative rho (up, down):  0.000E+00 6.181E-04

     total cpu time spent up to now is     1045.5 secs

     total energy              =    -426.99234958 Ry
     Harris-Foulkes estimate   =    -426.99237519 Ry
     estimated scf accuracy    <       0.00018952 Ry

     total magnetization       =     8.00 Bohr mag/cell
     absolute magnetization    =     8.80 Bohr mag/cell

     iteration #125     ecut=    60.00 Ry     beta= 0.70
     Davidson diagonalization with overlap
     ethr =  1.70E-07,  avg # of iterations =  6.0

     negative rho (up, down):  0.000E+00 5.903E-04

     total cpu time spent up to now is     1054.6 secs

     total energy              =    -426.99236729 Ry
     Harris-Foulkes estimate   =    -426.99247126 Ry
     estimated scf accuracy    <       0.01928006 Ry

     total magnetization       =     8.00 Bohr mag/cell
     absolute magnetization    =     8.78 Bohr mag/cell

     iteration #126     ecut=    60.00 Ry     beta= 0.70
     Davidson diagonalization with overlap
     ethr =  1.70E-07,  avg # of iterations =  5.8

     negative rho (up, down):  0.000E+00 6.319E-04

     total cpu time spent up to now is     1063.4 secs

     total energy              =    -426.99241280 Ry
     Harris-Foulkes estimate   =    -426.99240155 Ry
     estimated scf accuracy    <       0.00307670 Ry

     total magnetization       =     8.00 Bohr mag/cell
     absolute magnetization    =     8.78 Bohr mag/cell

     iteration #127     ecut=    60.00 Ry     beta= 0.70
     Davidson diagonalization with overlap
     ethr =  1.70E-07,  avg # of iterations =  1.0

     negative rho (up, down):  0.000E+00 6.042E-04

     total cpu time spent up to now is     1070.7 secs

     total energy              =    -426.99239055 Ry
     Harris-Foulkes estimate   =    -426.99241346 Ry
     estimated scf accuracy    <       0.00341171 Ry

     total magnetization       =     8.00 Bohr mag/cell
     absolute magnetization    =     8.78 Bohr mag/cell

     iteration #128     ecut=    60.00 Ry     beta= 0.70
     Davidson diagonalization with overlap
     ethr =  1.70E-07,  avg # of iterations =  1.0

     negative rho (up, down):  0.000E+00 6.458E-04

     total cpu time spent up to now is     1077.9 secs

     total energy              =    -426.99244727 Ry
     Harris-Foulkes estimate   =    -426.99239228 Ry
     estimated scf accuracy    <       0.00278568 Ry

     total magnetization       =     8.00 Bohr mag/cell
     absolute magnetization    =     8.78 Bohr mag/cell

     iteration #129     ecut=    60.00 Ry     beta= 0.70
     Davidson diagonalization with overlap
     ethr =  1.70E-07,  avg # of iterations =  5.9

     negative rho (up, down):  0.000E+00 6.042E-04

     total cpu time spent up to now is     1088.7 secs

     total energy              =    -426.99226228 Ry
     Harris-Foulkes estimate   =    -426.99251872 Ry
     estimated scf accuracy    <       0.02820992 Ry

     total magnetization       =     8.00 Bohr mag/cell
     absolute magnetization    =     8.79 Bohr mag/cell

     iteration #130     ecut=    60.00 Ry     beta= 0.70
     Davidson diagonalization with overlap
     ethr =  1.70E-07,  avg # of iterations =  6.0

     negative rho (up, down):  0.000E+00 5.903E-04

     total cpu time spent up to now is     1099.5 secs

     total energy              =    -426.99237943 Ry
     Harris-Foulkes estimate   =    -426.99238923 Ry
     estimated scf accuracy    <       0.00012552 Ry

     total magnetization       =     8.00 Bohr mag/cell
     absolute magnetization    =     8.79 Bohr mag/cell

     iteration #131     ecut=    60.00 Ry     beta= 0.70
     Davidson diagonalization with overlap
     ethr =  1.70E-07,  avg # of iterations =  5.0

     negative rho (up, down):  0.000E+00 6.042E-04

     total cpu time spent up to now is     1108.8 secs

     total energy              =    -426.99237340 Ry
     Harris-Foulkes estimate   =    -426.99240420 Ry
     estimated scf accuracy    <       0.00167575 Ry

     total magnetization       =     8.00 Bohr mag/cell
     absolute magnetization    =     8.81 Bohr mag/cell

     iteration #132     ecut=    60.00 Ry     beta= 0.70
     Davidson diagonalization with overlap
     ethr =  1.70E-07,  avg # of iterations =  2.5

     negative rho (up, down):  0.000E+00 6.597E-04

     total cpu time spent up to now is     1118.3 secs

     total energy              =    -426.99233723 Ry
     Harris-Foulkes estimate   =    -426.99237950 Ry
     estimated scf accuracy    <       0.00106249 Ry

     total magnetization       =     8.00 Bohr mag/cell
     absolute magnetization    =     8.81 Bohr mag/cell

     iteration #133     ecut=    60.00 Ry     beta= 0.70
     Davidson diagonalization with overlap
     ethr =  1.70E-07,  avg # of iterations =  6.0

     negative rho (up, down):  0.000E+00 6.181E-04

     total cpu time spent up to now is     1128.8 secs

     total energy              =    -426.99241193 Ry
     Harris-Foulkes estimate   =    -426.99243988 Ry
     estimated scf accuracy    <       0.01211582 Ry

     total magnetization       =     8.00 Bohr mag/cell
     absolute magnetization    =     8.78 Bohr mag/cell

     iteration #134     ecut=    60.00 Ry     beta= 0.70
     Davidson diagonalization with overlap
     ethr =  1.70E-07,  avg # of iterations =  1.0

     negative rho (up, down):  0.000E+00 6.181E-04

     total cpu time spent up to now is     1137.1 secs

     total energy              =    -426.99234456 Ry
     Harris-Foulkes estimate   =    -426.99241262 Ry
     estimated scf accuracy    <       0.01154232 Ry

     total magnetization       =     8.00 Bohr mag/cell
     absolute magnetization    =     8.78 Bohr mag/cell

     iteration #135     ecut=    60.00 Ry     beta= 0.70
     Davidson diagonalization with overlap
     ethr =  1.70E-07,  avg # of iterations =  5.1

     negative rho (up, down):  0.000E+00 6.319E-04

     total cpu time spent up to now is     1146.1 secs

     total energy              =    -426.99239000 Ry
     Harris-Foulkes estimate   =    -426.99238887 Ry
     estimated scf accuracy    <       0.00015686 Ry

     total magnetization       =     8.00 Bohr mag/cell
     absolute magnetization    =     8.79 Bohr mag/cell

     iteration #136     ecut=    60.00 Ry     beta= 0.70
     Davidson diagonalization with overlap
     ethr =  1.70E-07,  avg # of iterations =  5.8

     negative rho (up, down):  0.000E+00 6.597E-04

     total cpu time spent up to now is     1156.1 secs

     total energy              =    -426.99251511 Ry
     Harris-Foulkes estimate   =    -426.99244840 Ry
     estimated scf accuracy    <       0.01453284 Ry

     total magnetization       =     8.00 Bohr mag/cell
     absolute magnetization    =     8.78 Bohr mag/cell

     iteration #137     ecut=    60.00 Ry     beta= 0.70
     Davidson diagonalization with overlap
     ethr =  1.70E-07,  avg # of iterations =  2.5

     negative rho (up, down):  0.000E+00 6.181E-04

     total cpu time spent up to now is     1165.0 secs

     total energy              =    -426.99236300 Ry
     Harris-Foulkes estimate   =    -426.99252093 Ry
     estimated scf accuracy    <       0.01646680 Ry

     total magnetization       =     8.00 Bohr mag/cell
     absolute magnetization    =     8.78 Bohr mag/cell

     iteration #138     ecut=    60.00 Ry     beta= 0.70
     Davidson diagonalization with overlap
     ethr =  1.70E-07,  avg # of iterations =  3.0

     negative rho (up, down):  0.000E+00 6.181E-04

     total cpu time spent up to now is     1175.3 secs

     total energy              =    -426.99238998 Ry
     Harris-Foulkes estimate   =    -426.99238671 Ry
     estimated scf accuracy    <       0.01258518 Ry

     total magnetization       =     8.00 Bohr mag/cell
     absolute magnetization    =     8.78 Bohr mag/cell

     iteration #139     ecut=    60.00 Ry     beta= 0.70
     Davidson diagonalization with overlap
     ethr =  1.70E-07,  avg # of iterations =  1.0

     negative rho (up, down):  0.000E+00 6.181E-04

     total cpu time spent up to now is     1183.3 secs

     total energy              =    -426.99235101 Ry
     Harris-Foulkes estimate   =    -426.99239018 Ry
     estimated scf accuracy    <       0.01273153 Ry

     total magnetization       =     8.00 Bohr mag/cell
     absolute magnetization    =     8.78 Bohr mag/cell

     iteration #140     ecut=    60.00 Ry     beta= 0.70
     Davidson diagonalization with overlap
     ethr =  1.70E-07,  avg # of iterations =  1.0

     negative rho (up, down):  0.000E+00 6.458E-04

     total cpu time spent up to now is     1190.7 secs

     total energy              =    -426.99239953 Ry
     Harris-Foulkes estimate   =    -426.99235261 Ry
     estimated scf accuracy    <       0.01171342 Ry

     total magnetization       =     8.00 Bohr mag/cell
     absolute magnetization    =     8.78 Bohr mag/cell

[...]
     ethr =  1.70E-07,  avg # of iterations =  1.0

     negative rho (up, down):  0.000E+00 5.903E-04

     total cpu time spent up to now is     1212.9 secs

     total energy              =    -426.99239337 Ry
     Harris-Foulkes estimate   =    -426.99242363 Ry
     estimated scf accuracy    <       0.01381426 Ry

     total magnetization       =     8.00 Bohr mag/cell
     absolute magnetization    =     8.78 Bohr mag/cell

     iteration #144     ecut=    60.00 Ry     beta= 0.70
     Davidson diagonalization with overlap
     ethr =  1.70E-07,  avg # of iterations =  1.0

     negative rho (up, down):  0.000E+00 5.625E-04

     total cpu time spent up to now is     1220.2 secs

     total energy              =    -426.99103083 Ry
     Harris-Foulkes estimate   =    -426.99239454 Ry
     estimated scf accuracy    <       0.01277372 Ry

     total magnetization       =     8.00 Bohr mag/cell
     absolute magnetization    =     8.78 Bohr mag/cell

     iteration #145     ecut=    60.00 Ry     beta= 0.70
     Davidson diagonalization with overlap
     ethr =  1.70E-07,  avg # of iterations = 10.2

     negative rho (up, down):  0.000E+00 5.903E-04

     total cpu time spent up to now is     1232.9 secs

     total energy              =    -426.99272460 Ry
     Harris-Foulkes estimate   =    -426.99369411 Ry
     estimated scf accuracy    <       0.07427077 Ry

     total magnetization       =     8.00 Bohr mag/cell
     absolute magnetization    =     8.94 Bohr mag/cell

     iteration #146     ecut=    60.00 Ry     beta= 0.70
     Davidson diagonalization with overlap
     ethr =  1.70E-07,  avg # of iterations =  5.8

     negative rho (up, down):  0.000E+00 6.319E-04

     total cpu time spent up to now is     1244.5 secs

     total energy              =    -426.99238855 Ry
     Harris-Foulkes estimate   =    -426.99292241 Ry
     estimated scf accuracy    <       0.04036309 Ry

     total magnetization       =     8.00 Bohr mag/cell
     absolute magnetization    =     8.91 Bohr mag/cell

     iteration #147     ecut=    60.00 Ry     beta= 0.70
     Davidson diagonalization with overlap
     ethr =  1.70E-07,  avg # of iterations =  5.5

     negative rho (up, down):  0.000E+00 6.181E-04

     total cpu time spent up to now is     1257.1 secs

     total energy              =    -426.99236166 Ry
     Harris-Foulkes estimate   =    -426.99252534 Ry
     estimated scf accuracy    <       0.01464568 Ry

     total magnetization       =     8.00 Bohr mag/cell
     absolute magnetization    =     8.86 Bohr mag/cell

     iteration #148     ecut=    60.00 Ry     beta= 0.70
     Davidson diagonalization with overlap
     ethr =  1.70E-07,  avg # of iterations =  5.2

     negative rho (up, down):  0.000E+00 5.903E-04

     total cpu time spent up to now is     1268.4 secs

     total energy              =    -426.99239231 Ry
     Harris-Foulkes estimate   =    -426.99241016 Ry
     estimated scf accuracy    <       0.00354709 Ry

     total magnetization       =     8.00 Bohr mag/cell
     absolute magnetization    =     8.82 Bohr mag/cell

     iteration #149     ecut=    60.00 Ry     beta= 0.70
     Davidson diagonalization with overlap
     ethr =  1.70E-07,  avg # of iterations =  1.0

     negative rho (up, down):  0.000E+00 5.903E-04

     total cpu time spent up to now is     1276.8 secs

     total energy              =    -426.99239073 Ry
     Harris-Foulkes estimate   =    -426.99239338 Ry
     estimated scf accuracy    <       0.00312649 Ry

     total magnetization       =     8.00 Bohr mag/cell
     absolute magnetization    =     8.82 Bohr mag/cell

     iteration #150     ecut=    60.00 Ry     beta= 0.70
     Davidson diagonalization with overlap
     ethr =  1.70E-07,  avg # of iterations =  1.0

     negative rho (up, down):  0.000E+00 5.764E-04

     total cpu time spent up to now is     1285.2 secs

     total energy              =    -426.99236640 Ry
     Harris-Foulkes estimate   =    -426.99239106 Ry
     estimated scf accuracy    <       0.00307816 Ry

     total magnetization       =     8.00 Bohr mag/cell
     absolute magnetization    =     8.82 Bohr mag/cell

     iteration #151     ecut=    60.00 Ry     beta= 0.70
     Davidson diagonalization with overlap
     ethr =  1.70E-07,  avg # of iterations =  3.0

     negative rho (up, down):  0.000E+00 6.181E-04

     total cpu time spent up to now is     1294.6 secs

     total energy              =    -426.99239470 Ry
     Harris-Foulkes estimate   =    -426.99237613 Ry
     estimated scf accuracy    <       0.00142177 Ry

     total magnetization       =     8.00 Bohr mag/cell
     absolute magnetization    =     8.81 Bohr mag/cell

     iteration #152     ecut=    60.00 Ry     beta= 0.70
     Davidson diagonalization with overlap
     ethr =  1.70E-07,  avg # of iterations =  1.5

     negative rho (up, down):  0.000E+00 6.181E-04

     total cpu time spent up to now is     1303.5 secs

     total energy              =    -426.99240214 Ry
     Harris-Foulkes estimate   =    -426.99239795 Ry
     estimated scf accuracy    <       0.00202086 Ry

     total magnetization       =     8.00 Bohr mag/cell
     absolute magnetization    =     8.81 Bohr mag/cell

     iteration #153     ecut=    60.00 Ry     beta= 0.70
     Davidson diagonalization with overlap
     ethr =  1.70E-07,  avg # of iterations =  1.0

     negative rho (up, down):  0.000E+00 5.764E-04

     total cpu time spent up to now is     1311.9 secs

     total energy              =    -426.99230151 Ry
     Harris-Foulkes estimate   =    -426.99240286 Ry
     estimated scf accuracy    <       0.00218215 Ry

     total magnetization       =     8.00 Bohr mag/cell
     absolute magnetization    =     8.81 Bohr mag/cell

     iteration #154     ecut=    60.00 Ry     beta= 0.70
     Davidson diagonalization with overlap
     ethr =  1.70E-07,  avg # of iterations =  6.8

     negative rho (up, down):  0.000E+00 6.181E-04

     total cpu time spent up to now is     1323.9 secs

     total energy              =    -426.99237066 Ry
     Harris-Foulkes estimate   =    -426.99244048 Ry
     estimated scf accuracy    <       0.01230833 Ry

     total magnetization       =     8.00 Bohr mag/cell
     absolute magnetization    =     8.78 Bohr mag/cell

     iteration #155     ecut=    60.00 Ry     beta= 0.70
     Davidson diagonalization with overlap
     ethr =  1.70E-07,  avg # of iterations =  2.5

     negative rho (up, down):  0.000E+00 5.903E-04

     total cpu time spent up to now is     1333.7 secs

     total energy              =    -426.99234385 Ry
     Harris-Foulkes estimate   =    -426.99237779 Ry
     estimated scf accuracy    <       0.01042032 Ry

     total magnetization       =     8.00 Bohr mag/cell
     absolute magnetization    =     8.78 Bohr mag/cell

     iteration #156     ecut=    60.00 Ry     beta= 0.70
     Davidson diagonalization with overlap
     ethr =  1.70E-07,  avg # of iterations =  4.4

     negative rho (up, down):  0.000E+00 5.903E-04

     total cpu time spent up to now is     1342.6 secs

     total energy              =    -426.99238763 Ry
     Harris-Foulkes estimate   =    -426.99238853 Ry
     estimated scf accuracy    <       0.00002335 Ry

     total magnetization       =     8.00 Bohr mag/cell
     absolute magnetization    =     8.79 Bohr mag/cell

     iteration #157     ecut=    60.00 Ry     beta= 0.70
     Davidson diagonalization with overlap
     ethr =  7.78E-08,  avg # of iterations =  1.9

     negative rho (up, down):  0.000E+00 5.903E-04

     total cpu time spent up to now is     1351.5 secs

     total energy              =    -426.99238900 Ry
     Harris-Foulkes estimate   =    -426.99238877 Ry
     estimated scf accuracy    <       0.00001064 Ry

     total magnetization       =     8.00 Bohr mag/cell
     absolute magnetization    =     8.79 Bohr mag/cell

     iteration #158     ecut=    60.00 Ry     beta= 0.70
     Davidson diagonalization with overlap
     ethr =  3.55E-08,  avg # of iterations =  1.0

     negative rho (up, down):  0.000E+00 5.903E-04

     total cpu time spent up to now is     1360.0 secs

     total energy              =    -426.99238932 Ry
     Harris-Foulkes estimate   =    -426.99238917 Ry
     estimated scf accuracy    <       0.00002265 Ry

     total magnetization       =     8.00 Bohr mag/cell
     absolute magnetization    =     8.79 Bohr mag/cell

     iteration #159     ecut=    60.00 Ry     beta= 0.70
     Davidson diagonalization with overlap
     ethr =  3.55E-08,  avg # of iterations =  1.0

     negative rho (up, down):  0.000E+00 5.903E-04

     total cpu time spent up to now is     1368.3 secs

     total energy              =    -426.99238895 Ry
     Harris-Foulkes estimate   =    -426.99238945 Ry
     estimated scf accuracy    <       0.00003403 Ry

     total magnetization       =     8.00 Bohr mag/cell
     absolute magnetization    =     8.79 Bohr mag/cell

     iteration #160     ecut=    60.00 Ry     beta= 0.70
     Davidson diagonalization with overlap
     ethr =  3.55E-08,  avg # of iterations =  1.0

     negative rho (up, down):  0.000E+00 5.903E-04

     total cpu time spent up to now is     1376.1 secs

     total energy              =    -426.99238869 Ry
     Harris-Foulkes estimate   =    -426.99238909 Ry
     estimated scf accuracy    <       0.00001919 Ry

     total magnetization       =     8.00 Bohr mag/cell
     absolute magnetization    =     8.79 Bohr mag/cell

     iteration #161     ecut=    60.00 Ry     beta= 0.70
     Davidson diagonalization with overlap
     ethr =  3.55E-08,  avg # of iterations =  1.0

     negative rho (up, down):  0.000E+00 5.764E-04

     total cpu time spent up to now is     1383.5 secs

     total energy              =    -426.99238664 Ry
     Harris-Foulkes estimate   =    -426.99238900 Ry
     estimated scf accuracy    <       0.00000666 Ry

     total magnetization       =     8.00 Bohr mag/cell
     absolute magnetization    =     8.79 Bohr mag/cell

     iteration #162     ecut=    60.00 Ry     beta= 0.70
     Davidson diagonalization with overlap
     ethr =  2.22E-08,  avg # of iterations =  6.9

     negative rho (up, down):  0.000E+00 5.764E-04

     total cpu time spent up to now is     1393.7 secs

     total energy              =    -426.99241045 Ry
     Harris-Foulkes estimate   =    -426.99240129 Ry
     estimated scf accuracy    <       0.00281061 Ry

     total magnetization       =     8.00 Bohr mag/cell
     absolute magnetization    =     8.78 Bohr mag/cell

     iteration #163     ecut=    60.00 Ry     beta= 0.70
     Davidson diagonalization with overlap
     ethr =  2.22E-08,  avg # of iterations =  2.5

     negative rho (up, down):  0.000E+00 5.764E-04

     total cpu time spent up to now is     1403.6 secs

     total energy              =    -426.99238360 Ry
     Harris-Foulkes estimate   =    -426.99241106 Ry
     estimated scf accuracy    <       0.00311382 Ry

     total magnetization       =     8.00 Bohr mag/cell
     absolute magnetization    =     8.78 Bohr mag/cell

     iteration #164     ecut=    60.00 Ry     beta= 0.70
     Davidson diagonalization with overlap
     ethr =  2.22E-08,  avg # of iterations =  6.2

     negative rho (up, down):  0.000E+00 5.764E-04

     total cpu time spent up to now is     1415.0 secs

     total energy              =    -426.99239371 Ry
     Harris-Foulkes estimate   =    -426.99239121 Ry
     estimated scf accuracy    <       0.00047494 Ry

     total magnetization       =     8.00 Bohr mag/cell
     absolute magnetization    =     8.79 Bohr mag/cell

     iteration #165     ecut=    60.00 Ry     beta= 0.70
     Davidson diagonalization with overlap
     ethr =  2.22E-08,  avg # of iterations =  1.5

     negative rho (up, down):  0.000E+00 5.764E-04

     total cpu time spent up to now is     1423.8 secs

     total energy              =    -426.99239004 Ry
     Harris-Foulkes estimate   =    -426.99239407 Ry
     estimated scf accuracy    <       0.00057591 Ry

     total magnetization       =     8.00 Bohr mag/cell
     absolute magnetization    =     8.79 Bohr mag/cell

     iteration #166     ecut=    60.00 Ry     beta= 0.70
     Davidson diagonalization with overlap
     ethr =  2.22E-08,  avg # of iterations =  2.5

     negative rho (up, down):  0.000E+00 5.764E-04

     total cpu time spent up to now is     1433.2 secs

     total energy              =    -426.99239060 Ry
     Harris-Foulkes estimate   =    -426.99239058 Ry
     estimated scf accuracy    <       0.00044599 Ry

     total magnetization       =     8.00 Bohr mag/cell
     absolute magnetization    =     8.79 Bohr mag/cell

     iteration #167     ecut=    60.00 Ry     beta= 0.70
     Davidson diagonalization with overlap
     ethr =  2.22E-08,  avg # of iterations =  1.0

     negative rho (up, down):  0.000E+00 5.764E-04

     total cpu time spent up to now is     1441.7 secs

     total energy              =    -426.99238703 Ry
     Harris-Foulkes estimate   =    -426.99239063 Ry
     estimated scf accuracy    <       0.00045096 Ry

     total magnetization       =     8.00 Bohr mag/cell
     absolute magnetization    =     8.79 Bohr mag/cell

     iteration #168     ecut=    60.00 Ry     beta= 0.70
     Davidson diagonalization with overlap
     ethr =  2.22E-08,  avg # of iterations =  2.1

     negative rho (up, down):  0.000E+00 5.764E-04

     total cpu time spent up to now is     1450.9 secs

     total energy              =    -426.99238657 Ry
     Harris-Foulkes estimate   =    -426.99238756 Ry
     estimated scf accuracy    <       0.00035550 Ry

     total magnetization       =     8.00 Bohr mag/cell
     absolute magnetization    =     8.79 Bohr mag/cell

     iteration #169     ecut=    60.00 Ry     beta= 0.70
     Davidson diagonalization with overlap
     ethr =  2.22E-08,  avg # of iterations =  1.0

     negative rho (up, down):  0.000E+00 5.764E-04

     total cpu time spent up to now is     1459.9 secs

     total energy              =    -426.99238608 Ry
     Harris-Foulkes estimate   =    -426.99238672 Ry
     estimated scf accuracy    <       0.00033079 Ry

     total magnetization       =     8.00 Bohr mag/cell
     absolute magnetization    =     8.79 Bohr mag/cell

     iteration #170     ecut=    60.00 Ry     beta= 0.70
     Davidson diagonalization with overlap
     ethr =  2.22E-08,  avg # of iterations =  3.1

     negative rho (up, down):  0.000E+00 5.764E-04

     Magnetic moment per site:
     atom:    1    charge:   14.9963    magn:    4.2126    constr:    0.0000
     atom:    2    charge:   14.9187    magn:    3.8253    constr:    0.0000

     total cpu time spent up to now is     1468.9 secs

     End of self-consistent calculation

 ------ SPIN UP ------------


          k = 0.1250 0.1250 0.1250 ( 36714 PWs)   bands (ev):

   -84.2860 -83.9053 -53.0540 -53.0540 -53.0540 -52.6947 -52.6947 -52.6947
    -5.3566  -5.3566  -5.3565  -5.3557  -5.3557  -5.1814  -5.1814  -5.0261
    -5.0261  -5.0260  -3.9527

          k = 0.1250 0.1250 0.3750 ( 36741 PWs)   bands (ev):

   -84.2860 -83.9053 -53.0540 -53.0540 -53.0540 -52.6947 -52.6947 -52.6947
    -5.3567  -5.3566  -5.3566  -5.3557  -5.3554  -5.1814  -5.1812  -5.0262
    -5.0261  -5.0261  -3.9178

          k = 0.1250 0.3750 0.3750 ( 36692 PWs)   bands (ev):

   -84.2860 -83.9053 -53.0540 -53.0540 -53.0540 -52.6947 -52.6947 -52.6947
    -5.3567  -5.3566  -5.3566  -5.3555  -5.3553  -5.1813  -5.1810  -5.0262
    -5.0261  -5.0261  -3.8993

          k = 0.3750 0.3750 0.3750 ( 36684 PWs)   bands (ev):

   -84.2860 -83.9053 -53.0540 -53.0540 -53.0540 -52.6947 -52.6947 -52.6947
    -5.3567  -5.3567  -5.3567  -5.3553  -5.3553  -5.1810  -5.1810  -5.0262
    -5.0262  -5.0262  -3.8885

 ------ SPIN DOWN ----------


          k = 0.1250 0.1250 0.1250 ( 36714 PWs)   bands (ev):

   -79.5530 -79.3765 -48.4268 -48.4268 -48.4268 -48.2698 -48.2698 -48.2698
    -3.4686  -3.2171  -1.6907  -1.6907  -1.6900  -1.6101  -1.6101  -1.6034
    -1.6027  -1.6027  -1.3990

          k = 0.1250 0.1250 0.3750 ( 36741 PWs)   bands (ev):

   -79.5530 -79.3765 -48.4268 -48.4268 -48.4268 -48.2698 -48.2698 -48.2698
    -3.4352  -3.2342  -1.6921  -1.6916  -1.6901  -1.6095  -1.6060  -1.6055
    -1.6045  -1.6028  -1.3987

          k = 0.1250 0.3750 0.3750 ( 36692 PWs)   bands (ev):

   -79.5530 -79.3765 -48.4268 -48.4268 -48.4268 -48.2698 -48.2698 -48.2698
    -3.4190  -3.2270  -1.6929  -1.6926  -1.6920  -1.6072  -1.6063  -1.6040
    -1.6039  -1.6032  -1.3959

          k = 0.3750 0.3750 0.3750 ( 36684 PWs)   bands (ev):

   -79.5530 -79.3765 -48.4268 -48.4268 -48.4268 -48.2698 -48.2698 -48.2698
    -3.4073  -3.2160  -1.6945  -1.6945  -1.6936  -1.6080  -1.6080  -1.6063
    -1.6032  -1.6032  -1.3906

     the Fermi energy is    -1.8464 ev

!    total energy              =    -426.99238855 Ry
     Harris-Foulkes estimate   =    -426.99238872 Ry
     estimated scf accuracy    <       0.00000027 Ry

     The total energy is the sum of the following terms:

     one-electron contribution =    -535.60170448 Ry
     hartree contribution      =     262.15856120 Ry
     xc contribution           =     -55.61667169 Ry
     ewald contribution        =     -97.92200330 Ry
     smearing contrib. (-TS)   =      -0.01057028 Ry

     total magnetization       =     8.00 Bohr mag/cell
     absolute magnetization    =     8.79 Bohr mag/cell

     convergence has been achieved in 170 iterations

     Writing output data file mn-8.85.save/

     init_run     :      3.83s CPU      4.16s WALL (       1 calls)
     electrons    :   1386.57s CPU   1464.08s WALL (       1 calls)

     Called by init_run:
     wfcinit      :      1.43s CPU      1.46s WALL (       1 calls)
     potinit      :      0.90s CPU      0.95s WALL (       1 calls)
     hinit0       :      0.40s CPU      0.41s WALL (       1 calls)

     Called by electrons:
     c_bands      :    613.97s CPU    623.71s WALL (     170 calls)
     sum_band     :    449.62s CPU    481.80s WALL (     170 calls)
     v_of_rho     :    128.59s CPU    133.35s WALL (     171 calls)
     newd         :    147.95s CPU    177.58s WALL (     171 calls)
     mix_rho      :     31.68s CPU     32.58s WALL (     170 calls)

     Called by c_bands:
     init_us_2    :      5.83s CPU      5.88s WALL (    2728 calls)
     cegterg      :    589.04s CPU    598.65s WALL (    1360 calls)

     Called by sum_band:
     sum_band:bec :      0.03s CPU      0.03s WALL (    1360 calls)
     addusdens    :    328.35s CPU    357.56s WALL (     170 calls)

     Called by *egterg:
     h_psi        :    437.94s CPU    447.13s WALL (    4806 calls)
     s_psi        :     24.87s CPU     24.95s WALL (    4806 calls)
     g_psi        :      1.89s CPU      1.90s WALL (    3438 calls)
     cdiaghg      :      3.51s CPU      3.53s WALL (    4798 calls)

     Called by h_psi:
     h_psi:pot    :    436.39s CPU    445.56s WALL (    4806 calls)
     h_psi:calbec :     37.37s CPU     37.64s WALL (    4806 calls)
     vloc_psi     :    372.45s CPU    381.29s WALL (    4806 calls)
     add_vuspsi   :     26.52s CPU     26.61s WALL (    4806 calls)

     General routines
     calbec       :     51.87s CPU     52.22s WALL (    6166 calls)
     fft          :     94.58s CPU     99.39s WALL (    4269 calls)
     ffts         :      3.82s CPU      3.95s WALL (     682 calls)
     fftw         :    395.17s CPU    404.63s WALL (  154674 calls)
     interpolate  :     11.42s CPU     11.81s WALL (     342 calls)

     Parallel routines
     fft_scatt_xy :     55.69s CPU     56.82s WALL (  159625 calls)
     fft_scatt_yz :    193.20s CPU    201.51s WALL (  159625 calls)

     PWSCF        :  23m11.19s CPU  24m29.17s WALL


   This run was terminated on:  19:31:45  27Jul2022            

=------------------------------------------------------------------------------=
   JOB DONE.
=------------------------------------------------------------------------------=
