
     Program PWSCF v.6.4.1 starts on 27Jul2022 at 22:26:41 

     This program is part of the open-source Quantum ESPRESSO suite
     for quantum simulation of materials; please cite
         "P. Giannozzi et al., J. Phys.:Condens. Matter 21 395502 (2009);
         "P. Giannozzi et al., J. Phys.:Condens. Matter 29 465901 (2017);
          URL http://www.quantum-espresso.org", 
     in publications or presentations arising from this work. More details at
     http://www.quantum-espresso.org/quote

     Parallel version (MPI), running on     6 processors

     MPI processes distributed on     1 nodes
     R & G space division:  proc/nbgrp/npool/nimage =       6
     Reading input from mn-9.03.in

     Current dimensions of program PWSCF are:
     Max number of different atomic species (ntypx) = 10
     Max number of k-points (npk) =  40000
     Max angular momentum in pseudopotentials (lmaxx) =  3
               file Mn.pbe-spn-rrkjus_psl.0.3.1.UPF: wavefunction(s)  3D renormalized

     Subspace diagonalization in iterative solution of the eigenvalue problem:
     a serial algorithm will be used

     Found symmetry operation: I + ( -0.5000 -0.5000 -0.5000)
     This is a supercell, fractional translations are disabled
     Message from routine setup:
     DEPRECATED: symmetry with ibrav=0, use correct ibrav instead

     Parallelization info
     --------------------
     sticks:   dense  smooth     PW     G-vecs:    dense   smooth      PW
     Min        1855     928    246               147075    52058    7154
     Max        1856     929    247               147078    52061    7157
     Sum       11133    5573   1481               882459   312361   42931



     bravais-lattice index     =            0
     lattice parameter (alat)  =      17.0642  a.u.
     unit-cell volume          =    4968.8954 (a.u.)^3
     number of atoms/cell      =            2
     number of atomic types    =            1
     number of electrons       =        30.00
     number of Kohn-Sham states=           19
     kinetic-energy cutoff     =      60.0000  Ry
     charge density cutoff     =     480.0000  Ry
     convergence threshold     =      1.0E-06
     mixing beta               =       0.7000
     number of iterations used =            8  plain     mixing
     Exchange-correlation      = PBE ( 1  4  3  4 0 0)

     celldm(1)=  17.064227  celldm(2)=   0.000000  celldm(3)=   0.000000
     celldm(4)=   0.000000  celldm(5)=   0.000000  celldm(6)=   0.000000

     crystal axes: (cart. coord. in units of alat)
               a(1) = (   1.000000   0.000000   0.000000 )  
               a(2) = (   0.000000   1.000000   0.000000 )  
               a(3) = (   0.000000   0.000000   1.000000 )  

     reciprocal axes: (cart. coord. in units 2 pi/alat)
               b(1) = (  1.000000  0.000000  0.000000 )  
               b(2) = (  0.000000  1.000000  0.000000 )  
               b(3) = (  0.000000  0.000000  1.000000 )  


     PseudoPot. # 1 for Mn read from file:
     /home/cristian/Escritorio/Proyecto_Grafeno/pseudopotenciales/Mn.pbe-spn-rrkjus_psl.0.3.1.UPF
     MD5 check sum: e1cac159bdd2ba70c18e85765a5d4279
     Pseudo is Ultrasoft + core correction, Zval = 15.0
     Generated using "atomic" code by A. Dal Corso v.6.2.2
     Using radial grid of 1187 points,  6 beta functions with: 
                l(1) =   0
                l(2) =   0
                l(3) =   1
                l(4) =   1
                l(5) =   2
                l(6) =   2
     Q(r) pseudized with 0 coefficients 


     atomic species   valence    mass     pseudopotential
        Mn            15.00    54.93804     Mn( 1.00)

     Starting magnetic structure 
     atomic species   magnetization
        Mn           0.700

     48 Sym. Ops., with inversion, found



   Cartesian axes

     site n.     atom                  positions (alat units)
         1           Mn  tau(   1) = (   0.0000000   0.0000000   0.0000000  )
         2           Mn  tau(   2) = (   0.5000000   0.5000000   0.5000000  )

     number of k points=     4  Methfessel-Paxton smearing, width (Ry)=  0.0300
                       cart. coord. in units 2pi/alat
        k(    1) = (   0.1250000   0.1250000   0.1250000), wk =   0.1250000
        k(    2) = (   0.1250000   0.1250000   0.3750000), wk =   0.3750000
        k(    3) = (   0.1250000   0.3750000   0.3750000), wk =   0.3750000
        k(    4) = (   0.3750000   0.3750000   0.3750000), wk =   0.1250000

     Dense  grid:   882459 G-vectors     FFT dimensions: ( 120, 120, 120)

     Smooth grid:   312361 G-vectors     FFT dimensions: (  90,  90,  90)

     Estimated max dynamical RAM per process >     585.53 MB

     Estimated total dynamical RAM >       3.43 GB
     Generating pointlists ...
     new r_m :   0.3572 (alat units)  6.0959 (a.u.) for type    1

     Check: negative core charge=   -0.000001

     Initial potential from superposition of free atoms

     starting charge   29.99900, renormalised to   30.00000

     negative rho (up, down):  0.000E+00 2.678E-02
     Starting wfcs are   20 randomized atomic wfcs

     total cpu time spent up to now is        4.8 secs

     Self-consistent Calculation

     iteration #  1     ecut=    60.00 Ry     beta= 0.70
     Davidson diagonalization with overlap
     ethr =  1.00E-02,  avg # of iterations =  1.5

     negative rho (up, down):  0.000E+00 3.184E-03

     total cpu time spent up to now is       12.3 secs

     total energy              =    -426.64896130 Ry
     Harris-Foulkes estimate   =    -425.58042884 Ry
     estimated scf accuracy    <       2.02991725 Ry

     total magnetization       =     8.00 Bohr mag/cell
     absolute magnetization    =     8.85 Bohr mag/cell

     iteration #  2     ecut=    60.00 Ry     beta= 0.70
     Davidson diagonalization with overlap
     ethr =  6.77E-03,  avg # of iterations =  2.5

     negative rho (up, down):  0.000E+00 2.358E-03

     total cpu time spent up to now is       20.5 secs

     total energy              =    -426.58095597 Ry
     Harris-Foulkes estimate   =    -426.97766237 Ry
     estimated scf accuracy    <       1.08384188 Ry

     total magnetization       =     8.00 Bohr mag/cell
     absolute magnetization    =     8.93 Bohr mag/cell

     iteration #  3     ecut=    60.00 Ry     beta= 0.70
     Davidson diagonalization with overlap
     ethr =  3.61E-03,  avg # of iterations =  5.1

     negative rho (up, down):  0.000E+00 3.531E-03

     total cpu time spent up to now is       29.0 secs

     total energy              =    -425.61464243 Ry
     Harris-Foulkes estimate   =    -428.27424624 Ry
     estimated scf accuracy    <      31.11445996 Ry

     total magnetization       =     2.00 Bohr mag/cell
     absolute magnetization    =     2.69 Bohr mag/cell

     iteration #  4     ecut=    60.00 Ry     beta= 0.70
     Davidson diagonalization with overlap
     ethr =  3.61E-03,  avg # of iterations =  2.5

     negative rho (up, down):  0.000E+00 9.903E-03

     total cpu time spent up to now is       36.8 secs

     total energy              =    -426.66741076 Ry
     Harris-Foulkes estimate   =    -427.10549531 Ry
     estimated scf accuracy    <       2.13075819 Ry

     total magnetization       =     8.04 Bohr mag/cell
     absolute magnetization    =     9.04 Bohr mag/cell

     iteration #  5     ecut=    60.00 Ry     beta= 0.70
     Davidson diagonalization with overlap
     ethr =  3.61E-03,  avg # of iterations =  3.0

     negative rho (up, down):  0.000E+00 1.388E-02

     total cpu time spent up to now is       44.9 secs

     total energy              =    -426.96756273 Ry
     Harris-Foulkes estimate   =    -427.01234063 Ry
     estimated scf accuracy    <       0.36084250 Ry

     total magnetization       =     8.00 Bohr mag/cell
     absolute magnetization    =     8.99 Bohr mag/cell

     iteration #  6     ecut=    60.00 Ry     beta= 0.70
     Davidson diagonalization with overlap
     ethr =  1.20E-03,  avg # of iterations =  1.5

     negative rho (up, down):  0.000E+00 1.137E-02

     total cpu time spent up to now is       52.3 secs

     total energy              =    -426.98029156 Ry
     Harris-Foulkes estimate   =    -426.98324166 Ry
     estimated scf accuracy    <       0.05075488 Ry

     total magnetization       =     8.00 Bohr mag/cell
     absolute magnetization    =     8.95 Bohr mag/cell

     iteration #  7     ecut=    60.00 Ry     beta= 0.70
     Davidson diagonalization with overlap
     ethr =  1.69E-04,  avg # of iterations =  2.5

     negative rho (up, down):  0.000E+00 1.216E-02

     total cpu time spent up to now is       60.2 secs

     total energy              =    -426.98687974 Ry
     Harris-Foulkes estimate   =    -426.98720341 Ry
     estimated scf accuracy    <       0.00492807 Ry

     total magnetization       =     8.00 Bohr mag/cell
     absolute magnetization    =     9.05 Bohr mag/cell

     iteration #  8     ecut=    60.00 Ry     beta= 0.70
     Davidson diagonalization with overlap
     ethr =  1.64E-05,  avg # of iterations =  8.2

     negative rho (up, down):  0.000E+00 1.258E-02

     total cpu time spent up to now is       69.1 secs

     total energy              =    -426.98808725 Ry
     Harris-Foulkes estimate   =    -426.98880991 Ry
     estimated scf accuracy    <       0.01551841 Ry

     total magnetization       =     8.00 Bohr mag/cell
     absolute magnetization    =     8.99 Bohr mag/cell

     iteration #  9     ecut=    60.00 Ry     beta= 0.70
     Davidson diagonalization with overlap
     ethr =  1.64E-05,  avg # of iterations =  1.5

     negative rho (up, down):  0.000E+00 1.118E-02

     total cpu time spent up to now is       76.4 secs

     total energy              =    -426.98901377 Ry
     Harris-Foulkes estimate   =    -426.98919738 Ry
     estimated scf accuracy    <       0.02265178 Ry

     total magnetization       =     8.00 Bohr mag/cell
     absolute magnetization    =     8.94 Bohr mag/cell

     iteration # 10     ecut=    60.00 Ry     beta= 0.70
     Davidson diagonalization with overlap
     ethr =  1.64E-05,  avg # of iterations =  2.9

     negative rho (up, down):  0.000E+00 1.176E-02

     total cpu time spent up to now is       84.0 secs

     total energy              =    -426.98932158 Ry
     Harris-Foulkes estimate   =    -426.98952303 Ry
     estimated scf accuracy    <       0.01441902 Ry

     total magnetization       =     8.00 Bohr mag/cell
     absolute magnetization    =     9.00 Bohr mag/cell

     iteration # 11     ecut=    60.00 Ry     beta= 0.70
     Davidson diagonalization with overlap
     ethr =  1.64E-05,  avg # of iterations =  1.0

     negative rho (up, down):  0.000E+00 1.447E-02

     total cpu time spent up to now is       91.2 secs

     total energy              =    -426.98792181 Ry
     Harris-Foulkes estimate   =    -426.98940446 Ry
     estimated scf accuracy    <       0.02671945 Ry

     total magnetization       =     8.00 Bohr mag/cell
     absolute magnetization    =     8.99 Bohr mag/cell

     iteration # 12     ecut=    60.00 Ry     beta= 0.70
     Davidson diagonalization with overlap
     ethr =  1.64E-05,  avg # of iterations =  3.0

     negative rho (up, down):  0.000E+00 1.471E-02

     total cpu time spent up to now is       98.8 secs

     total energy              =    -426.98874051 Ry
     Harris-Foulkes estimate   =    -426.98900387 Ry
     estimated scf accuracy    <       0.00646351 Ry

     total magnetization       =     8.00 Bohr mag/cell
     absolute magnetization    =     8.96 Bohr mag/cell

     iteration # 13     ecut=    60.00 Ry     beta= 0.70
     Davidson diagonalization with overlap
     ethr =  1.64E-05,  avg # of iterations =  1.0

     negative rho (up, down):  0.000E+00 1.261E-02

     total cpu time spent up to now is      106.0 secs

     total energy              =    -426.98892874 Ry
     Harris-Foulkes estimate   =    -426.98902485 Ry
     estimated scf accuracy    <       0.00042282 Ry

     total magnetization       =     8.00 Bohr mag/cell
     absolute magnetization    =     8.97 Bohr mag/cell

     iteration # 14     ecut=    60.00 Ry     beta= 0.70
     Davidson diagonalization with overlap
     ethr =  1.41E-06,  avg # of iterations =  3.8

     negative rho (up, down):  0.000E+00 1.265E-02

     total cpu time spent up to now is      113.7 secs

     total energy              =    -426.99122042 Ry
     Harris-Foulkes estimate   =    -426.99121067 Ry
     estimated scf accuracy    <       0.03091922 Ry

     total magnetization       =     8.00 Bohr mag/cell
     absolute magnetization    =     8.80 Bohr mag/cell

     iteration # 15     ecut=    60.00 Ry     beta= 0.70
     Davidson diagonalization with overlap
     ethr =  1.41E-06,  avg # of iterations =  1.0

     negative rho (up, down):  0.000E+00 1.466E-02

     total cpu time spent up to now is      120.9 secs

     total energy              =    -426.99140496 Ry
     Harris-Foulkes estimate   =    -426.99122558 Ry
     estimated scf accuracy    <       0.03416736 Ry

     total magnetization       =     8.00 Bohr mag/cell
     absolute magnetization    =     8.80 Bohr mag/cell

     iteration # 16     ecut=    60.00 Ry     beta= 0.70
     Davidson diagonalization with overlap
     ethr =  1.41E-06,  avg # of iterations =  2.2

     negative rho (up, down):  0.000E+00 1.236E-02

     total cpu time spent up to now is      128.6 secs

     total energy              =    -426.99139226 Ry
     Harris-Foulkes estimate   =    -426.99145809 Ry
     estimated scf accuracy    <       0.04253796 Ry

     total magnetization       =     8.00 Bohr mag/cell
     absolute magnetization    =     8.80 Bohr mag/cell

     iteration # 17     ecut=    60.00 Ry     beta= 0.70
     Davidson diagonalization with overlap
     ethr =  1.41E-06,  avg # of iterations =  2.2

     negative rho (up, down):  0.000E+00 1.116E-02

     total cpu time spent up to now is      136.1 secs

     total energy              =    -426.99111972 Ry
     Harris-Foulkes estimate   =    -426.99145040 Ry
     estimated scf accuracy    <       0.04377723 Ry

     total magnetization       =     8.00 Bohr mag/cell
     absolute magnetization    =     8.80 Bohr mag/cell

     iteration # 18     ecut=    60.00 Ry     beta= 0.70
     Davidson diagonalization with overlap
     ethr =  1.41E-06,  avg # of iterations =  2.5

     negative rho (up, down):  0.000E+00 1.707E-02

     total cpu time spent up to now is      144.0 secs

     total energy              =    -426.99139709 Ry
     Harris-Foulkes estimate   =    -426.99120230 Ry
     estimated scf accuracy    <       0.03753143 Ry

     total magnetization       =     8.00 Bohr mag/cell
     absolute magnetization    =     8.80 Bohr mag/cell

     iteration # 19     ecut=    60.00 Ry     beta= 0.70
     Davidson diagonalization with overlap
     ethr =  1.41E-06,  avg # of iterations =  5.2

     negative rho (up, down):  0.000E+00 1.313E-02

     total cpu time spent up to now is      153.9 secs

     total energy              =    -426.99451982 Ry
     Harris-Foulkes estimate   =    -426.99459839 Ry
     estimated scf accuracy    <       0.22475298 Ry

     total magnetization       =     8.00 Bohr mag/cell
     absolute magnetization    =     8.89 Bohr mag/cell

     iteration # 20     ecut=    60.00 Ry     beta= 0.70
     Davidson diagonalization with overlap
     ethr =  1.41E-06,  avg # of iterations =  1.1

     negative rho (up, down):  0.000E+00 5.729E-03

     total cpu time spent up to now is      161.0 secs

     total energy              =    -426.99257148 Ry
     Harris-Foulkes estimate   =    -426.99454258 Ry
     estimated scf accuracy    <       0.21259853 Ry

     total magnetization       =     8.00 Bohr mag/cell
     absolute magnetization    =     8.89 Bohr mag/cell

     iteration # 21     ecut=    60.00 Ry     beta= 0.70
     Davidson diagonalization with overlap
     ethr =  1.41E-06,  avg # of iterations =  4.5

     negative rho (up, down):  0.000E+00 3.661E-03

     total cpu time spent up to now is      171.2 secs

     total energy              =    -426.98592508 Ry
     Harris-Foulkes estimate   =    -426.99330787 Ry
     estimated scf accuracy    <       0.15024031 Ry

     total magnetization       =     8.00 Bohr mag/cell
     absolute magnetization    =     8.88 Bohr mag/cell

     iteration # 22     ecut=    60.00 Ry     beta= 0.70
     Davidson diagonalization with overlap
     ethr =  1.41E-06,  avg # of iterations = 12.8

     negative rho (up, down):  0.000E+00 3.372E-03

     total cpu time spent up to now is      183.5 secs

     total energy              =    -426.99030824 Ry
     Harris-Foulkes estimate   =    -426.99127371 Ry
     estimated scf accuracy    <       0.02032839 Ry

     total magnetization       =     8.00 Bohr mag/cell
     absolute magnetization    =     8.78 Bohr mag/cell

     iteration # 23     ecut=    60.00 Ry     beta= 0.70
     Davidson diagonalization with overlap
     ethr =  1.41E-06,  avg # of iterations =  5.2

     negative rho (up, down):  0.000E+00 3.934E-03

     total cpu time spent up to now is      193.8 secs

     total energy              =    -426.99272245 Ry
     Harris-Foulkes estimate   =    -426.99237767 Ry
     estimated scf accuracy    <       0.06736867 Ry

     total magnetization       =     8.00 Bohr mag/cell
     absolute magnetization    =     8.85 Bohr mag/cell

     iteration # 24     ecut=    60.00 Ry     beta= 0.70
     Davidson diagonalization with overlap
     ethr =  1.41E-06,  avg # of iterations =  1.5

     negative rho (up, down):  0.000E+00 3.559E-03

     total cpu time spent up to now is      201.0 secs

     total energy              =    -426.99255181 Ry
     Harris-Foulkes estimate   =    -426.99279118 Ry
     estimated scf accuracy    <       0.09065295 Ry

     total magnetization       =     8.00 Bohr mag/cell
     absolute magnetization    =     8.85 Bohr mag/cell

     iteration # 25     ecut=    60.00 Ry     beta= 0.70
     Davidson diagonalization with overlap
     ethr =  1.41E-06,  avg # of iterations =  2.0

     negative rho (up, down):  0.000E+00 3.080E-03

     total cpu time spent up to now is      208.6 secs

     total energy              =    -426.99231178 Ry
     Harris-Foulkes estimate   =    -426.99258781 Ry
     estimated scf accuracy    <       0.07605700 Ry

     total magnetization       =     8.00 Bohr mag/cell
     absolute magnetization    =     8.85 Bohr mag/cell

     iteration # 26     ecut=    60.00 Ry     beta= 0.70
     Davidson diagonalization with overlap
     ethr =  1.41E-06,  avg # of iterations =  3.0

     negative rho (up, down):  0.000E+00 3.849E-03

     total cpu time spent up to now is      217.3 secs

     total energy              =    -426.98810665 Ry
     Harris-Foulkes estimate   =    -426.99240665 Ry
     estimated scf accuracy    <       0.06544027 Ry

     total magnetization       =     8.00 Bohr mag/cell
     absolute magnetization    =     8.85 Bohr mag/cell

     iteration # 27     ecut=    60.00 Ry     beta= 0.70
     Davidson diagonalization with overlap
     ethr =  1.41E-06,  avg # of iterations =  9.2

     negative rho (up, down):  0.000E+00 3.995E-03

     total cpu time spent up to now is      228.9 secs

     total energy              =    -426.99237427 Ry
     Harris-Foulkes estimate   =    -426.99233509 Ry
     estimated scf accuracy    <       0.08875083 Ry

     total magnetization       =     8.00 Bohr mag/cell
     absolute magnetization    =     8.84 Bohr mag/cell

     iteration # 28     ecut=    60.00 Ry     beta= 0.70
     Davidson diagonalization with overlap
     ethr =  1.41E-06,  avg # of iterations =  1.0

     negative rho (up, down):  0.000E+00 3.905E-03

     total cpu time spent up to now is      236.2 secs

     total energy              =    -426.99235968 Ry
     Harris-Foulkes estimate   =    -426.99237857 Ry
     estimated scf accuracy    <       0.09278748 Ry

     total magnetization       =     8.00 Bohr mag/cell
     absolute magnetization    =     8.84 Bohr mag/cell

     iteration # 29     ecut=    60.00 Ry     beta= 0.70
     Davidson diagonalization with overlap
     ethr =  1.41E-06,  avg # of iterations =  1.0

     negative rho (up, down):  0.000E+00 3.052E-03

     total cpu time spent up to now is      243.4 secs

     total energy              =    -426.99179192 Ry
     Harris-Foulkes estimate   =    -426.99237477 Ry
     estimated scf accuracy    <       0.08049208 Ry

     total magnetization       =     8.00 Bohr mag/cell
     absolute magnetization    =     8.85 Bohr mag/cell

     iteration # 30     ecut=    60.00 Ry     beta= 0.70
     Davidson diagonalization with overlap
     ethr =  1.41E-06,  avg # of iterations =  3.0

     negative rho (up, down):  0.000E+00 2.385E-03

     total cpu time spent up to now is      252.4 secs

     total energy              =    -426.99086724 Ry
     Harris-Foulkes estimate   =    -426.99195975 Ry
     estimated scf accuracy    <       0.05341274 Ry

     total magnetization       =     8.00 Bohr mag/cell
     absolute magnetization    =     8.85 Bohr mag/cell

     iteration # 31     ecut=    60.00 Ry     beta= 0.70
     Davidson diagonalization with overlap
     ethr =  1.41E-06,  avg # of iterations =  4.8

     negative rho (up, down):  0.000E+00 2.997E-03

     total cpu time spent up to now is      262.5 secs

     total energy              =    -426.99166647 Ry
     Harris-Foulkes estimate   =    -426.99196449 Ry
     estimated scf accuracy    <       0.01324484 Ry

     total magnetization       =     8.00 Bohr mag/cell
     absolute magnetization    =     8.81 Bohr mag/cell

     iteration # 32     ecut=    60.00 Ry     beta= 0.70
     Davidson diagonalization with overlap
     ethr =  1.41E-06,  avg # of iterations =  3.0

     negative rho (up, down):  0.000E+00 3.108E-03

     total cpu time spent up to now is      271.5 secs

     total energy              =    -426.99187451 Ry
     Harris-Foulkes estimate   =    -426.99186582 Ry
     estimated scf accuracy    <       0.00368026 Ry

     total magnetization       =     8.00 Bohr mag/cell
     absolute magnetization    =     8.81 Bohr mag/cell

     iteration # 33     ecut=    60.00 Ry     beta= 0.70
     Davidson diagonalization with overlap
     ethr =  1.41E-06,  avg # of iterations =  1.0

     negative rho (up, down):  0.000E+00 3.170E-03

     total cpu time spent up to now is      278.6 secs

     total energy              =    -426.99181032 Ry
     Harris-Foulkes estimate   =    -426.99187681 Ry
     estimated scf accuracy    <       0.00355919 Ry

     total magnetization       =     8.00 Bohr mag/cell
     absolute magnetization    =     8.81 Bohr mag/cell

     iteration # 34     ecut=    60.00 Ry     beta= 0.70
     Davidson diagonalization with overlap
     ethr =  1.41E-06,  avg # of iterations =  2.5

     negative rho (up, down):  0.000E+00 3.122E-03

     total cpu time spent up to now is      286.7 secs

     total energy              =    -426.99182921 Ry
     Harris-Foulkes estimate   =    -426.99185574 Ry
     estimated scf accuracy    <       0.00138967 Ry

     total magnetization       =     8.00 Bohr mag/cell
     absolute magnetization    =     8.82 Bohr mag/cell

     iteration # 35     ecut=    60.00 Ry     beta= 0.70
     Davidson diagonalization with overlap
     ethr =  1.41E-06,  avg # of iterations =  3.0

     negative rho (up, down):  0.000E+00 2.913E-03

     total cpu time spent up to now is      295.1 secs

     total energy              =    -426.99185488 Ry
     Harris-Foulkes estimate   =    -426.99190552 Ry
     estimated scf accuracy    <       0.00440347 Ry

     total magnetization       =     8.00 Bohr mag/cell
     absolute magnetization    =     8.81 Bohr mag/cell

     iteration # 36     ecut=    60.00 Ry     beta= 0.70
     Davidson diagonalization with overlap
     ethr =  1.41E-06,  avg # of iterations =  1.0

     negative rho (up, down):  0.000E+00 2.955E-03

     total cpu time spent up to now is      302.2 secs

     total energy              =    -426.99186779 Ry
     Harris-Foulkes estimate   =    -426.99186951 Ry
     estimated scf accuracy    <       0.00255540 Ry

     total magnetization       =     8.00 Bohr mag/cell
     absolute magnetization    =     8.81 Bohr mag/cell

     iteration # 37     ecut=    60.00 Ry     beta= 0.70
     Davidson diagonalization with overlap
     ethr =  1.41E-06,  avg # of iterations =  1.0

     negative rho (up, down):  0.000E+00 2.969E-03

     total cpu time spent up to now is      309.3 secs

     total energy              =    -426.99187015 Ry
     Harris-Foulkes estimate   =    -426.99187143 Ry
     estimated scf accuracy    <       0.00227491 Ry

     total magnetization       =     8.00 Bohr mag/cell
     absolute magnetization    =     8.81 Bohr mag/cell

     iteration # 38     ecut=    60.00 Ry     beta= 0.70
     Davidson diagonalization with overlap
     ethr =  1.41E-06,  avg # of iterations =  1.0

     negative rho (up, down):  0.000E+00 2.899E-03

     total cpu time spent up to now is      316.4 secs

     total energy              =    -426.99188289 Ry
     Harris-Foulkes estimate   =    -426.99187197 Ry
     estimated scf accuracy    <       0.00284265 Ry

     total magnetization       =     8.00 Bohr mag/cell
     absolute magnetization    =     8.81 Bohr mag/cell

     iteration # 39     ecut=    60.00 Ry     beta= 0.70
     Davidson diagonalization with overlap
     ethr =  1.41E-06,  avg # of iterations =  1.0

     negative rho (up, down):  0.000E+00 4.168E-03

     total cpu time spent up to now is      323.5 secs

     total energy              =    -426.99153366 Ry
     Harris-Foulkes estimate   =    -426.99188589 Ry
     estimated scf accuracy    <       0.00353487 Ry

     total magnetization       =     8.00 Bohr mag/cell
     absolute magnetization    =     8.81 Bohr mag/cell

     iteration # 40     ecut=    60.00 Ry     beta= 0.70
     Davidson diagonalization with overlap
     ethr =  1.41E-06,  avg # of iterations =  5.6

     negative rho (up, down):  0.000E+00 2.635E-03

     total cpu time spent up to now is      333.2 secs

     total energy              =    -426.99117270 Ry
     Harris-Foulkes estimate   =    -426.99238042 Ry
     estimated scf accuracy    <       0.07158655 Ry

     total magnetization       =     8.00 Bohr mag/cell
     absolute magnetization    =     8.85 Bohr mag/cell

     iteration # 41     ecut=    60.00 Ry     beta= 0.70
     Davidson diagonalization with overlap
     ethr =  1.41E-06,  avg # of iterations =  5.8

     negative rho (up, down):  0.000E+00 2.580E-03

     total cpu time spent up to now is      343.3 secs

     total energy              =    -426.99192847 Ry
     Harris-Foulkes estimate   =    -426.99192791 Ry
     estimated scf accuracy    <       0.00091090 Ry

     total magnetization       =     8.00 Bohr mag/cell
     absolute magnetization    =     8.80 Bohr mag/cell

     iteration # 42     ecut=    60.00 Ry     beta= 0.70
     Davidson diagonalization with overlap
     ethr =  1.41E-06,  avg # of iterations =  1.0

     negative rho (up, down):  0.000E+00 2.545E-03

     total cpu time spent up to now is      350.4 secs

     total energy              =    -426.99194623 Ry
     Harris-Foulkes estimate   =    -426.99192995 Ry
     estimated scf accuracy    <       0.00108266 Ry

     total magnetization       =     8.00 Bohr mag/cell
     absolute magnetization    =     8.80 Bohr mag/cell

     iteration # 43     ecut=    60.00 Ry     beta= 0.70
     Davidson diagonalization with overlap
     ethr =  1.41E-06,  avg # of iterations =  1.0

     negative rho (up, down):  0.000E+00 2.663E-03

     total cpu time spent up to now is      357.6 secs

     total energy              =    -426.99191486 Ry
     Harris-Foulkes estimate   =    -426.99195003 Ry
     estimated scf accuracy    <       0.00147946 Ry

     total magnetization       =     8.00 Bohr mag/cell
     absolute magnetization    =     8.80 Bohr mag/cell

     iteration # 44     ecut=    60.00 Ry     beta= 0.70
     Davidson diagonalization with overlap
     ethr =  1.41E-06,  avg # of iterations =  1.0

     negative rho (up, down):  0.000E+00 2.830E-03

     total cpu time spent up to now is      364.7 secs

     total energy              =    -426.99190003 Ry
     Harris-Foulkes estimate   =    -426.99192367 Ry
     estimated scf accuracy    <       0.00073103 Ry

     total magnetization       =     8.00 Bohr mag/cell
     absolute magnetization    =     8.80 Bohr mag/cell

     iteration # 45     ecut=    60.00 Ry     beta= 0.70
     Davidson diagonalization with overlap
     ethr =  1.41E-06,  avg # of iterations =  1.5

     negative rho (up, down):  0.000E+00 2.885E-03

     total cpu time spent up to now is      372.0 secs

     total energy              =    -426.99189505 Ry
     Harris-Foulkes estimate   =    -426.99191193 Ry
     estimated scf accuracy    <       0.00040291 Ry

     total magnetization       =     8.00 Bohr mag/cell
     absolute magnetization    =     8.80 Bohr mag/cell

     iteration # 46     ecut=    60.00 Ry     beta= 0.70
     Davidson diagonalization with overlap
     ethr =  1.34E-06,  avg # of iterations =  1.0

     negative rho (up, down):  0.000E+00 2.816E-03

     total cpu time spent up to now is      379.2 secs

     total energy              =    -426.99190384 Ry
     Harris-Foulkes estimate   =    -426.99190338 Ry
     estimated scf accuracy    <       0.00015786 Ry

     total magnetization       =     8.00 Bohr mag/cell
     absolute magnetization    =     8.80 Bohr mag/cell

     iteration # 47     ecut=    60.00 Ry     beta= 0.70
     Davidson diagonalization with overlap
     ethr =  5.26E-07,  avg # of iterations =  1.0

     negative rho (up, down):  0.000E+00 2.747E-03

     total cpu time spent up to now is      386.4 secs

     total energy              =    -426.99190178 Ry
     Harris-Foulkes estimate   =    -426.99190512 Ry
     estimated scf accuracy    <       0.00017637 Ry

     total magnetization       =     8.00 Bohr mag/cell
     absolute magnetization    =     8.80 Bohr mag/cell

     iteration # 48     ecut=    60.00 Ry     beta= 0.70
     Davidson diagonalization with overlap
     ethr =  5.26E-07,  avg # of iterations =  1.0

     negative rho (up, down):  0.000E+00 2.677E-03

     total cpu time spent up to now is      393.5 secs

     total energy              =    -426.99189983 Ry
     Harris-Foulkes estimate   =    -426.99190343 Ry
     estimated scf accuracy    <       0.00012747 Ry

     total magnetization       =     8.00 Bohr mag/cell
     absolute magnetization    =     8.80 Bohr mag/cell

     iteration # 49     ecut=    60.00 Ry     beta= 0.70
     Davidson diagonalization with overlap
     ethr =  4.25E-07,  avg # of iterations =  1.5

     negative rho (up, down):  0.000E+00 2.648E-03

     total cpu time spent up to now is      400.8 secs

     total energy              =    -426.99189715 Ry
     Harris-Foulkes estimate   =    -426.99190225 Ry
     estimated scf accuracy    <       0.00006082 Ry

     total magnetization       =     8.00 Bohr mag/cell
     absolute magnetization    =     8.80 Bohr mag/cell

     iteration # 50     ecut=    60.00 Ry     beta= 0.70
     Davidson diagonalization with overlap
     ethr =  2.03E-07,  avg # of iterations =  4.8

     negative rho (up, down):  0.000E+00 2.677E-03

     total cpu time spent up to now is      409.0 secs

     total energy              =    -426.99194291 Ry
     Harris-Foulkes estimate   =    -426.99201009 Ry
     estimated scf accuracy    <       0.01686094 Ry

     total magnetization       =     8.00 Bohr mag/cell
     absolute magnetization    =     8.79 Bohr mag/cell

     iteration # 51     ecut=    60.00 Ry     beta= 0.70
     Davidson diagonalization with overlap
     ethr =  2.03E-07,  avg # of iterations =  2.1

     negative rho (up, down):  0.000E+00 2.747E-03

     total cpu time spent up to now is      416.7 secs

     total energy              =    -426.99194206 Ry
     Harris-Foulkes estimate   =    -426.99194777 Ry
     estimated scf accuracy    <       0.01515856 Ry

     total magnetization       =     8.00 Bohr mag/cell
     absolute magnetization    =     8.79 Bohr mag/cell

     iteration # 52     ecut=    60.00 Ry     beta= 0.70
     Davidson diagonalization with overlap
     ethr =  2.03E-07,  avg # of iterations =  1.0

     negative rho (up, down):  0.000E+00 2.691E-03

     total cpu time spent up to now is      423.8 secs

     total energy              =    -426.99189221 Ry
     Harris-Foulkes estimate   =    -426.99194233 Ry
     estimated scf accuracy    <       0.01533213 Ry

     total magnetization       =     8.00 Bohr mag/cell
     absolute magnetization    =     8.79 Bohr mag/cell

     iteration # 53     ecut=    60.00 Ry     beta= 0.70
     Davidson diagonalization with overlap
     ethr =  2.03E-07,  avg # of iterations =  4.2

     negative rho (up, down):  0.000E+00 2.830E-03

     total cpu time spent up to now is      431.7 secs

     total energy              =    -426.99194454 Ry
     Harris-Foulkes estimate   =    -426.99193003 Ry
     estimated scf accuracy    <       0.00194858 Ry

     total magnetization       =     8.00 Bohr mag/cell
     absolute magnetization    =     8.78 Bohr mag/cell

     iteration # 54     ecut=    60.00 Ry     beta= 0.70
     Davidson diagonalization with overlap
     ethr =  2.03E-07,  avg # of iterations =  1.0

     negative rho (up, down):  0.000E+00 2.774E-03

     total cpu time spent up to now is      438.8 secs

     total energy              =    -426.99193018 Ry
     Harris-Foulkes estimate   =    -426.99194538 Ry
     estimated scf accuracy    <       0.00212442 Ry

     total magnetization       =     8.00 Bohr mag/cell
     absolute magnetization    =     8.78 Bohr mag/cell

     iteration # 55     ecut=    60.00 Ry     beta= 0.70
     Davidson diagonalization with overlap
     ethr =  2.03E-07,  avg # of iterations =  1.0

     negative rho (up, down):  0.000E+00 2.483E-03

     total cpu time spent up to now is      445.9 secs

     total energy              =    -426.99193901 Ry
     Harris-Foulkes estimate   =    -426.99193045 Ry
     estimated scf accuracy    <       0.00204664 Ry

     total magnetization       =     8.00 Bohr mag/cell
     absolute magnetization    =     8.78 Bohr mag/cell

     iteration # 56     ecut=    60.00 Ry     beta= 0.70
     Davidson diagonalization with overlap
     ethr =  2.03E-07,  avg # of iterations =  1.0

     negative rho (up, down):  0.000E+00 2.510E-03

     total cpu time spent up to now is      453.0 secs

     total energy              =    -426.99194336 Ry
     Harris-Foulkes estimate   =    -426.99193925 Ry
     estimated scf accuracy    <       0.00199072 Ry

     total magnetization       =     8.00 Bohr mag/cell
     absolute magnetization    =     8.78 Bohr mag/cell

     iteration # 57     ecut=    60.00 Ry     beta= 0.70
     Davidson diagonalization with overlap
     ethr =  2.03E-07,  avg # of iterations =  1.0

     negative rho (up, down):  0.000E+00 2.330E-03

     total cpu time spent up to now is      460.2 secs

     total energy              =    -426.99194568 Ry
     Harris-Foulkes estimate   =    -426.99194389 Ry
     estimated scf accuracy    <       0.00182635 Ry

     total magnetization       =     8.00 Bohr mag/cell
     absolute magnetization    =     8.78 Bohr mag/cell

     iteration # 58     ecut=    60.00 Ry     beta= 0.70
     Davidson diagonalization with overlap
     ethr =  2.03E-07,  avg # of iterations =  1.0

     negative rho (up, down):  0.000E+00 2.330E-03

     total cpu time spent up to now is      467.3 secs

     total energy              =    -426.99194275 Ry
     Harris-Foulkes estimate   =    -426.99194611 Ry
     estimated scf accuracy    <       0.00184346 Ry

     total magnetization       =     8.00 Bohr mag/cell
     absolute magnetization    =     8.78 Bohr mag/cell

     iteration # 59     ecut=    60.00 Ry     beta= 0.70
     Davidson diagonalization with overlap
     ethr =  2.03E-07,  avg # of iterations =  1.0

     negative rho (up, down):  0.000E+00 2.330E-03

     total cpu time spent up to now is      474.4 secs

     total energy              =    -426.99193875 Ry
     Harris-Foulkes estimate   =    -426.99194281 Ry
     estimated scf accuracy    <       0.00190054 Ry

     total magnetization       =     8.00 Bohr mag/cell
     absolute magnetization    =     8.78 Bohr mag/cell

     iteration # 60     ecut=    60.00 Ry     beta= 0.70
     Davidson diagonalization with overlap
     ethr =  2.03E-07,  avg # of iterations =  1.0

     negative rho (up, down):  0.000E+00 2.385E-03

     total cpu time spent up to now is      481.5 secs

     total energy              =    -426.99193718 Ry
     Harris-Foulkes estimate   =    -426.99193888 Ry
     estimated scf accuracy    <       0.00184749 Ry

     total magnetization       =     8.00 Bohr mag/cell
     absolute magnetization    =     8.78 Bohr mag/cell

     iteration # 61     ecut=    60.00 Ry     beta= 0.70
     Davidson diagonalization with overlap
     ethr =  2.03E-07,  avg # of iterations =  1.0

     negative rho (up, down):  0.000E+00 1.615E-03

     total cpu time spent up to now is      488.6 secs

     total energy              =    -426.99172277 Ry
     Harris-Foulkes estimate   =    -426.99193735 Ry
     estimated scf accuracy    <       0.00177114 Ry

     total magnetization       =     8.00 Bohr mag/cell
     absolute magnetization    =     8.78 Bohr mag/cell

     iteration # 62     ecut=    60.00 Ry     beta= 0.70
     Davidson diagonalization with overlap
     ethr =  2.03E-07,  avg # of iterations =  5.8

     negative rho (up, down):  0.000E+00 2.337E-03

     total cpu time spent up to now is      498.8 secs

     total energy              =    -426.99184783 Ry
     Harris-Foulkes estimate   =    -426.99206410 Ry
     estimated scf accuracy    <       0.02055352 Ry

     total magnetization       =     8.00 Bohr mag/cell
     absolute magnetization    =     8.84 Bohr mag/cell

     iteration # 63     ecut=    60.00 Ry     beta= 0.70
     Davidson diagonalization with overlap
     ethr =  2.03E-07,  avg # of iterations =  5.6

     negative rho (up, down):  0.000E+00 2.184E-03

     total cpu time spent up to now is      508.9 secs

     total energy              =    -426.99198080 Ry
     Harris-Foulkes estimate   =    -426.99199938 Ry
     estimated scf accuracy    <       0.00224452 Ry

     total magnetization       =     8.00 Bohr mag/cell
     absolute magnetization    =     8.81 Bohr mag/cell

     iteration # 64     ecut=    60.00 Ry     beta= 0.70
     Davidson diagonalization with overlap
     ethr =  2.03E-07,  avg # of iterations =  2.0

     negative rho (up, down):  0.000E+00 2.198E-03

     total cpu time spent up to now is      516.3 secs

     total energy              =    -426.99197652 Ry
     Harris-Foulkes estimate   =    -426.99198503 Ry
     estimated scf accuracy    <       0.00159702 Ry

     total magnetization       =     8.00 Bohr mag/cell
     absolute magnetization    =     8.81 Bohr mag/cell

     iteration # 65     ecut=    60.00 Ry     beta= 0.70
     Davidson diagonalization with overlap
     ethr =  2.03E-07,  avg # of iterations =  1.0

     negative rho (up, down):  0.000E+00 2.198E-03

     total cpu time spent up to now is      523.4 secs

     total energy              =    -426.99197540 Ry
     Harris-Foulkes estimate   =    -426.99197780 Ry
     estimated scf accuracy    <       0.00142508 Ry

     total magnetization       =     8.00 Bohr mag/cell
     absolute magnetization    =     8.81 Bohr mag/cell

     iteration # 66     ecut=    60.00 Ry     beta= 0.70
     Davidson diagonalization with overlap
     ethr =  2.03E-07,  avg # of iterations =  1.0

     negative rho (up, down):  0.000E+00 2.184E-03

     total cpu time spent up to now is      530.5 secs

     total energy              =    -426.99198266 Ry
     Harris-Foulkes estimate   =    -426.99197575 Ry
     estimated scf accuracy    <       0.00144639 Ry

     total magnetization       =     8.00 Bohr mag/cell
     absolute magnetization    =     8.81 Bohr mag/cell

     iteration # 67     ecut=    60.00 Ry     beta= 0.70
     Davidson diagonalization with overlap
     ethr =  2.03E-07,  avg # of iterations =  1.0

     negative rho (up, down):  0.000E+00 2.212E-03

     total cpu time spent up to now is      537.6 secs

     total energy              =    -426.99198025 Ry
     Harris-Foulkes estimate   =    -426.99198280 Ry
     estimated scf accuracy    <       0.00153160 Ry

     total magnetization       =     8.00 Bohr mag/cell
     absolute magnetization    =     8.81 Bohr mag/cell

     iteration # 68     ecut=    60.00 Ry     beta= 0.70
     Davidson diagonalization with overlap
     ethr =  2.03E-07,  avg # of iterations =  1.0

     negative rho (up, down):  0.000E+00 2.212E-03

     total cpu time spent up to now is      544.8 secs

     total energy              =    -426.99198610 Ry
     Harris-Foulkes estimate   =    -426.99198060 Ry
     estimated scf accuracy    <       0.00170066 Ry

     total magnetization       =     8.00 Bohr mag/cell
     absolute magnetization    =     8.81 Bohr mag/cell

     iteration # 69     ecut=    60.00 Ry     beta= 0.70
     Davidson diagonalization with overlap
     ethr =  2.03E-07,  avg # of iterations =  1.0

     negative rho (up, down):  0.000E+00 2.184E-03

     total cpu time spent up to now is      552.1 secs

     total energy              =    -426.99197912 Ry
     Harris-Foulkes estimate   =    -426.99198644 Ry
     estimated scf accuracy    <       0.00178199 Ry

     total magnetization       =     8.00 Bohr mag/cell
     absolute magnetization    =     8.81 Bohr mag/cell

     iteration # 70     ecut=    60.00 Ry     beta= 0.70
     Davidson diagonalization with overlap
     ethr =  2.03E-07,  avg # of iterations =  1.0

     negative rho (up, down):  0.000E+00 2.337E-03

     total cpu time spent up to now is      559.2 secs

     total energy              =    -426.99181925 Ry
     Harris-Foulkes estimate   =    -426.99197966 Ry
     estimated scf accuracy    <       0.00155730 Ry

     total magnetization       =     8.00 Bohr mag/cell
     absolute magnetization    =     8.81 Bohr mag/cell

     iteration # 71     ecut=    60.00 Ry     beta= 0.70
     Davidson diagonalization with overlap
     ethr =  2.03E-07,  avg # of iterations =  5.9

     negative rho (up, down):  0.000E+00 2.156E-03

     total cpu time spent up to now is      569.5 secs

     total energy              =    -426.99175168 Ry
     Harris-Foulkes estimate   =    -426.99250798 Ry
     estimated scf accuracy    <       0.07669911 Ry

     total magnetization       =     8.00 Bohr mag/cell
     absolute magnetization    =     8.86 Bohr mag/cell

     iteration # 72     ecut=    60.00 Ry     beta= 0.70
     Davidson diagonalization with overlap
     ethr =  2.03E-07,  avg # of iterations =  5.9

     negative rho (up, down):  0.000E+00 1.990E-03

     total cpu time spent up to now is      579.9 secs

     total energy              =    -426.99196695 Ry
     Harris-Foulkes estimate   =    -426.99200748 Ry
     estimated scf accuracy    <       0.00460395 Ry

     total magnetization       =     8.00 Bohr mag/cell
     absolute magnetization    =     8.78 Bohr mag/cell

     iteration # 73     ecut=    60.00 Ry     beta= 0.70
     Davidson diagonalization with overlap
     ethr =  2.03E-07,  avg # of iterations =  1.5

     negative rho (up, down):  0.000E+00 2.073E-03

     total cpu time spent up to now is      587.2 secs

     total energy              =    -426.99198379 Ry
     Harris-Foulkes estimate   =    -426.99196989 Ry
     estimated scf accuracy    <       0.00382610 Ry

     total magnetization       =     8.00 Bohr mag/cell
     absolute magnetization    =     8.78 Bohr mag/cell

     iteration # 74     ecut=    60.00 Ry     beta= 0.70
     Davidson diagonalization with overlap
     ethr =  2.03E-07,  avg # of iterations =  1.0

     negative rho (up, down):  0.000E+00 1.962E-03

     total cpu time spent up to now is      594.3 secs

     total energy              =    -426.99198560 Ry
     Harris-Foulkes estimate   =    -426.99198519 Ry
     estimated scf accuracy    <       0.00434943 Ry

     total magnetization       =     8.00 Bohr mag/cell
     absolute magnetization    =     8.78 Bohr mag/cell

     iteration # 75     ecut=    60.00 Ry     beta= 0.70
     Davidson diagonalization with overlap
     ethr =  2.03E-07,  avg # of iterations =  1.0

     negative rho (up, down):  0.000E+00 1.934E-03

     total cpu time spent up to now is      601.4 secs

     total energy              =    -426.99197534 Ry
     Harris-Foulkes estimate   =    -426.99198590 Ry
     estimated scf accuracy    <       0.00404993 Ry

     total magnetization       =     8.00 Bohr mag/cell
     absolute magnetization    =     8.78 Bohr mag/cell

     iteration # 76     ecut=    60.00 Ry     beta= 0.70
     Davidson diagonalization with overlap
     ethr =  2.03E-07,  avg # of iterations =  1.0

     negative rho (up, down):  0.000E+00 1.865E-03

     total cpu time spent up to now is      608.6 secs

     total energy              =    -426.99196925 Ry
     Harris-Foulkes estimate   =    -426.99197579 Ry
     estimated scf accuracy    <       0.00383922 Ry

     total magnetization       =     8.00 Bohr mag/cell
     absolute magnetization    =     8.78 Bohr mag/cell

     iteration # 77     ecut=    60.00 Ry     beta= 0.70
     Davidson diagonalization with overlap
     ethr =  2.03E-07,  avg # of iterations =  1.0

     negative rho (up, down):  0.000E+00 1.990E-03

     total cpu time spent up to now is      615.9 secs

     total energy              =    -426.99199596 Ry
     Harris-Foulkes estimate   =    -426.99196947 Ry
     estimated scf accuracy    <       0.00370395 Ry

     total magnetization       =     8.00 Bohr mag/cell
     absolute magnetization    =     8.78 Bohr mag/cell

     iteration # 78     ecut=    60.00 Ry     beta= 0.70
     Davidson diagonalization with overlap
     ethr =  2.03E-07,  avg # of iterations =  1.0

     negative rho (up, down):  0.000E+00 1.865E-03

     total cpu time spent up to now is      623.3 secs

     total energy              =    -426.99195596 Ry
     Harris-Foulkes estimate   =    -426.99199713 Ry
     estimated scf accuracy    <       0.00422606 Ry

     total magnetization       =     8.00 Bohr mag/cell
     absolute magnetization    =     8.78 Bohr mag/cell

     iteration # 79     ecut=    60.00 Ry     beta= 0.70
     Davidson diagonalization with overlap
     ethr =  2.03E-07,  avg # of iterations =  3.9

     negative rho (up, down):  0.000E+00 1.781E-03

     total cpu time spent up to now is      630.9 secs

     total energy              =    -426.99199582 Ry
     Harris-Foulkes estimate   =    -426.99199125 Ry
     estimated scf accuracy    <       0.00058474 Ry

     total magnetization       =     8.00 Bohr mag/cell
     absolute magnetization    =     8.80 Bohr mag/cell

     iteration # 80     ecut=    60.00 Ry     beta= 0.70
     Davidson diagonalization with overlap
     ethr =  2.03E-07,  avg # of iterations =  1.8

     negative rho (up, down):  0.000E+00 1.809E-03

     total cpu time spent up to now is      638.4 secs

     total energy              =    -426.99199678 Ry
     Harris-Foulkes estimate   =    -426.99199851 Ry
     estimated scf accuracy    <       0.00083892 Ry

     total magnetization       =     8.00 Bohr mag/cell
     absolute magnetization    =     8.80 Bohr mag/cell

     iteration # 81     ecut=    60.00 Ry     beta= 0.70
     Davidson diagonalization with overlap
     ethr =  2.03E-07,  avg # of iterations =  1.0

     negative rho (up, down):  0.000E+00 1.809E-03

     total cpu time spent up to now is      645.8 secs

     total energy              =    -426.99199764 Ry
     Harris-Foulkes estimate   =    -426.99199688 Ry
     estimated scf accuracy    <       0.00079713 Ry

     total magnetization       =     8.00 Bohr mag/cell
     absolute magnetization    =     8.80 Bohr mag/cell

     iteration # 82     ecut=    60.00 Ry     beta= 0.70
     Davidson diagonalization with overlap
     ethr =  2.03E-07,  avg # of iterations =  1.0

     negative rho (up, down):  0.000E+00 1.740E-03

     total cpu time spent up to now is      653.1 secs

     total energy              =    -426.99200498 Ry
     Harris-Foulkes estimate   =    -426.99199766 Ry
     estimated scf accuracy    <       0.00080784 Ry

     total magnetization       =     8.00 Bohr mag/cell
     absolute magnetization    =     8.80 Bohr mag/cell

     iteration # 83     ecut=    60.00 Ry     beta= 0.70
     Davidson diagonalization with overlap
     ethr =  2.03E-07,  avg # of iterations =  1.0

     negative rho (up, down):  0.000E+00 1.781E-03

     total cpu time spent up to now is      660.5 secs

     total energy              =    -426.99200065 Ry
     Harris-Foulkes estimate   =    -426.99200541 Ry
     estimated scf accuracy    <       0.00093544 Ry

     total magnetization       =     8.00 Bohr mag/cell
     absolute magnetization    =     8.80 Bohr mag/cell

     iteration # 84     ecut=    60.00 Ry     beta= 0.70
     Davidson diagonalization with overlap
     ethr =  2.03E-07,  avg # of iterations =  1.0

     negative rho (up, down):  0.000E+00 1.809E-03

     total cpu time spent up to now is      667.9 secs

     total energy              =    -426.99199417 Ry
     Harris-Foulkes estimate   =    -426.99200081 Ry
     estimated scf accuracy    <       0.00091172 Ry

     total magnetization       =     8.00 Bohr mag/cell
     absolute magnetization    =     8.80 Bohr mag/cell

     iteration # 85     ecut=    60.00 Ry     beta= 0.70
     Davidson diagonalization with overlap
     ethr =  2.03E-07,  avg # of iterations =  1.0

     negative rho (up, down):  0.000E+00 1.809E-03

     total cpu time spent up to now is      675.3 secs

     total energy              =    -426.99199249 Ry
     Harris-Foulkes estimate   =    -426.99199431 Ry
     estimated scf accuracy    <       0.00084424 Ry

     total magnetization       =     8.00 Bohr mag/cell
     absolute magnetization    =     8.80 Bohr mag/cell

     iteration # 86     ecut=    60.00 Ry     beta= 0.70
     Davidson diagonalization with overlap
     ethr =  2.03E-07,  avg # of iterations =  1.0

     negative rho (up, down):  0.000E+00 1.809E-03

     total cpu time spent up to now is      682.7 secs

     total energy              =    -426.99198800 Ry
     Harris-Foulkes estimate   =    -426.99199255 Ry
     estimated scf accuracy    <       0.00083222 Ry

     total magnetization       =     8.00 Bohr mag/cell
     absolute magnetization    =     8.80 Bohr mag/cell

     iteration # 87     ecut=    60.00 Ry     beta= 0.70
     Davidson diagonalization with overlap
     ethr =  2.03E-07,  avg # of iterations =  1.0

     negative rho (up, down):  0.000E+00 1.809E-03

     total cpu time spent up to now is      690.2 secs

     total energy              =    -426.99200568 Ry
     Harris-Foulkes estimate   =    -426.99198814 Ry
     estimated scf accuracy    <       0.00077842 Ry

     total magnetization       =     8.00 Bohr mag/cell
     absolute magnetization    =     8.80 Bohr mag/cell

     iteration # 88     ecut=    60.00 Ry     beta= 0.70
     Davidson diagonalization with overlap
     ethr =  2.03E-07,  avg # of iterations =  1.0

     negative rho (up, down):  0.000E+00 2.253E-03

     total cpu time spent up to now is      697.6 secs

     total energy              =    -426.99191060 Ry
     Harris-Foulkes estimate   =    -426.99200806 Ry
     estimated scf accuracy    <       0.00041673 Ry

     total magnetization       =     8.00 Bohr mag/cell
     absolute magnetization    =     8.80 Bohr mag/cell

     iteration # 89     ecut=    60.00 Ry     beta= 0.70
     Davidson diagonalization with overlap
     ethr =  2.03E-07,  avg # of iterations =  6.0

     negative rho (up, down):  0.000E+00 1.906E-03

     total cpu time spent up to now is      708.1 secs

     total energy              =    -426.99155217 Ry
     Harris-Foulkes estimate   =    -426.99265760 Ry
     estimated scf accuracy    <       0.08229908 Ry

     total magnetization       =     8.00 Bohr mag/cell
     absolute magnetization    =     8.88 Bohr mag/cell

     iteration # 90     ecut=    60.00 Ry     beta= 0.70
     Davidson diagonalization with overlap
     ethr =  2.03E-07,  avg # of iterations =  6.2

     negative rho (up, down):  0.000E+00 1.809E-03

     total cpu time spent up to now is      718.7 secs

     total energy              =    -426.99199127 Ry
     Harris-Foulkes estimate   =    -426.99198946 Ry
     estimated scf accuracy    <       0.00010931 Ry

     total magnetization       =     8.00 Bohr mag/cell
     absolute magnetization    =     8.79 Bohr mag/cell

     iteration # 91     ecut=    60.00 Ry     beta= 0.70
     Davidson diagonalization with overlap
     ethr =  2.03E-07,  avg # of iterations =  1.0

     negative rho (up, down):  0.000E+00 1.767E-03

     total cpu time spent up to now is      726.1 secs

     total energy              =    -426.99199286 Ry
     Harris-Foulkes estimate   =    -426.99199164 Ry
     estimated scf accuracy    <       0.00015710 Ry

     total magnetization       =     8.00 Bohr mag/cell
     absolute magnetization    =     8.79 Bohr mag/cell

     iteration # 92     ecut=    60.00 Ry     beta= 0.70
     Davidson diagonalization with overlap
     ethr =  2.03E-07,  avg # of iterations =  1.0

     negative rho (up, down):  0.000E+00 1.740E-03

     total cpu time spent up to now is      733.4 secs

     total energy              =    -426.99199517 Ry
     Harris-Foulkes estimate   =    -426.99199313 Ry
     estimated scf accuracy    <       0.00018085 Ry

     total magnetization       =     8.00 Bohr mag/cell
     absolute magnetization    =     8.79 Bohr mag/cell

     iteration # 93     ecut=    60.00 Ry     beta= 0.70
     Davidson diagonalization with overlap
     ethr =  2.03E-07,  avg # of iterations =  1.0

     negative rho (up, down):  0.000E+00 1.740E-03

     total cpu time spent up to now is      740.8 secs

     total energy              =    -426.99199515 Ry
     Harris-Foulkes estimate   =    -426.99199549 Ry
     estimated scf accuracy    <       0.00022166 Ry

     total magnetization       =     8.00 Bohr mag/cell
     absolute magnetization    =     8.79 Bohr mag/cell

     iteration # 94     ecut=    60.00 Ry     beta= 0.70
     Davidson diagonalization with overlap
     ethr =  2.03E-07,  avg # of iterations =  1.0

     negative rho (up, down):  0.000E+00 1.740E-03

     total cpu time spent up to now is      748.3 secs

     total energy              =    -426.99199506 Ry
     Harris-Foulkes estimate   =    -426.99199527 Ry
     estimated scf accuracy    <       0.00021975 Ry

     total magnetization       =     8.00 Bohr mag/cell
     absolute magnetization    =     8.79 Bohr mag/cell

     iteration # 95     ecut=    60.00 Ry     beta= 0.70
     Davidson diagonalization with overlap
     ethr =  2.03E-07,  avg # of iterations =  1.0

     negative rho (up, down):  0.000E+00 1.712E-03

     total cpu time spent up to now is      755.7 secs

     total energy              =    -426.99199587 Ry
     Harris-Foulkes estimate   =    -426.99199512 Ry
     estimated scf accuracy    <       0.00022005 Ry

     total magnetization       =     8.00 Bohr mag/cell
     absolute magnetization    =     8.79 Bohr mag/cell

     iteration # 96     ecut=    60.00 Ry     beta= 0.70
     Davidson diagonalization with overlap
     ethr =  2.03E-07,  avg # of iterations =  1.0

     negative rho (up, down):  0.000E+00 1.740E-03

     total cpu time spent up to now is      763.2 secs

     total energy              =    -426.99199464 Ry
     Harris-Foulkes estimate   =    -426.99199597 Ry
     estimated scf accuracy    <       0.00023954 Ry

     total magnetization       =     8.00 Bohr mag/cell
     absolute magnetization    =     8.79 Bohr mag/cell

     iteration # 97     ecut=    60.00 Ry     beta= 0.70
     Davidson diagonalization with overlap
     ethr =  2.03E-07,  avg # of iterations =  1.0

     negative rho (up, down):  0.000E+00 1.740E-03

     total cpu time spent up to now is      770.6 secs

     total energy              =    -426.99199501 Ry
     Harris-Foulkes estimate   =    -426.99199470 Ry
     estimated scf accuracy    <       0.00021761 Ry

     total magnetization       =     8.00 Bohr mag/cell
     absolute magnetization    =     8.79 Bohr mag/cell

     iteration # 98     ecut=    60.00 Ry     beta= 0.70
     Davidson diagonalization with overlap
     ethr =  2.03E-07,  avg # of iterations =  1.0

     negative rho (up, down):  0.000E+00 1.878E-03

     total cpu time spent up to now is      778.0 secs

     total energy              =    -426.99196964 Ry
     Harris-Foulkes estimate   =    -426.99199505 Ry
     estimated scf accuracy    <       0.00022918 Ry

     total magnetization       =     8.00 Bohr mag/cell
     absolute magnetization    =     8.79 Bohr mag/cell

     iteration # 99     ecut=    60.00 Ry     beta= 0.70
     Davidson diagonalization with overlap
     ethr =  2.03E-07,  avg # of iterations =  5.9

     negative rho (up, down):  0.000E+00 1.809E-03

     total cpu time spent up to now is      787.4 secs

     total energy              =    -426.99192231 Ry
     Harris-Foulkes estimate   =    -426.99203822 Ry
     estimated scf accuracy    <       0.01240313 Ry

     total magnetization       =     8.00 Bohr mag/cell
     absolute magnetization    =     8.78 Bohr mag/cell

     iteration #100     ecut=    60.00 Ry     beta= 0.70
     Davidson diagonalization with overlap
     ethr =  2.03E-07,  avg # of iterations =  5.8

     negative rho (up, down):  0.000E+00 1.781E-03

     Magnetic moment per site:
     atom:    1    charge:   14.9304    magn:    3.8533    constr:    0.0000
     atom:    2    charge:   14.9951    magn:    4.1809    constr:    0.0000

     total cpu time spent up to now is      796.3 secs

     total energy              =    -426.99199081 Ry
     Harris-Foulkes estimate   =    -426.99199003 Ry
     estimated scf accuracy    <       0.00025572 Ry

     total magnetization       =     8.00 Bohr mag/cell
     absolute magnetization    =     8.80 Bohr mag/cell

     iteration #101     ecut=    60.00 Ry     beta= 0.70
     Davidson diagonalization with overlap
     ethr =  2.03E-07,  avg # of iterations =  1.0

     negative rho (up, down):  0.000E+00 1.740E-03

     total cpu time spent up to now is      803.7 secs

     total energy              =    -426.99199541 Ry
     Harris-Foulkes estimate   =    -426.99199096 Ry
     estimated scf accuracy    <       0.00027751 Ry

     total magnetization       =     8.00 Bohr mag/cell
     absolute magnetization    =     8.80 Bohr mag/cell

     iteration #102     ecut=    60.00 Ry     beta= 0.70
     Davidson diagonalization with overlap
     ethr =  2.03E-07,  avg # of iterations =  1.0

     negative rho (up, down):  0.000E+00 1.712E-03

     total cpu time spent up to now is      811.0 secs

     total energy              =    -426.99199976 Ry
     Harris-Foulkes estimate   =    -426.99199605 Ry
     estimated scf accuracy    <       0.00036464 Ry

     total magnetization       =     8.00 Bohr mag/cell
     absolute magnetization    =     8.80 Bohr mag/cell

     iteration #103     ecut=    60.00 Ry     beta= 0.70
     Davidson diagonalization with overlap
     ethr =  2.03E-07,  avg # of iterations =  1.0

     negative rho (up, down):  0.000E+00 1.740E-03

     total cpu time spent up to now is      818.4 secs

     total energy              =    -426.99199612 Ry
     Harris-Foulkes estimate   =    -426.99200023 Ry
     estimated scf accuracy    <       0.00042506 Ry

     total magnetization       =     8.00 Bohr mag/cell
     absolute magnetization    =     8.80 Bohr mag/cell

     iteration #104     ecut=    60.00 Ry     beta= 0.70
     Davidson diagonalization with overlap
     ethr =  2.03E-07,  avg # of iterations =  1.0

     negative rho (up, down):  0.000E+00 1.809E-03

     total cpu time spent up to now is      825.8 secs

     total energy              =    -426.99199118 Ry
     Harris-Foulkes estimate   =    -426.99199642 Ry
     estimated scf accuracy    <       0.00035099 Ry

     total magnetization       =     8.00 Bohr mag/cell
     absolute magnetization    =     8.80 Bohr mag/cell

     iteration #105     ecut=    60.00 Ry     beta= 0.70
     Davidson diagonalization with overlap
     ethr =  2.03E-07,  avg # of iterations =  1.0

     negative rho (up, down):  0.000E+00 1.809E-03

     total cpu time spent up to now is      833.2 secs

     total energy              =    -426.99199167 Ry
     Harris-Foulkes estimate   =    -426.99199179 Ry
     estimated scf accuracy    <       0.00026618 Ry

     total magnetization       =     8.00 Bohr mag/cell
     absolute magnetization    =     8.80 Bohr mag/cell

     iteration #106     ecut=    60.00 Ry     beta= 0.70
     Davidson diagonalization with overlap
     ethr =  2.03E-07,  avg # of iterations =  1.0

     negative rho (up, down):  0.000E+00 1.809E-03

     total cpu time spent up to now is      840.6 secs

     total energy              =    -426.99199245 Ry
     Harris-Foulkes estimate   =    -426.99199179 Ry
     estimated scf accuracy    <       0.00026742 Ry

     total magnetization       =     8.00 Bohr mag/cell
     absolute magnetization    =     8.80 Bohr mag/cell

     iteration #107     ecut=    60.00 Ry     beta= 0.70
     Davidson diagonalization with overlap
     ethr =  2.03E-07,  avg # of iterations =  1.0

     negative rho (up, down):  0.000E+00 1.809E-03

     total cpu time spent up to now is      848.0 secs

     total energy              =    -426.99199180 Ry
     Harris-Foulkes estimate   =    -426.99199247 Ry
     estimated scf accuracy    <       0.00028012 Ry

     total magnetization       =     8.00 Bohr mag/cell
     absolute magnetization    =     8.80 Bohr mag/cell

     iteration #108     ecut=    60.00 Ry     beta= 0.70
     Davidson diagonalization with overlap
     ethr =  2.03E-07,  avg # of iterations =  1.0

     negative rho (up, down):  0.000E+00 2.073E-03

     total cpu time spent up to now is      855.3 secs

     total energy              =    -426.99195872 Ry
     Harris-Foulkes estimate   =    -426.99199181 Ry
     estimated scf accuracy    <       0.00027257 Ry

     total magnetization       =     8.00 Bohr mag/cell
     absolute magnetization    =     8.80 Bohr mag/cell

     iteration #109     ecut=    60.00 Ry     beta= 0.70
     Davidson diagonalization with overlap
     ethr =  2.03E-07,  avg # of iterations =  6.0

     negative rho (up, down):  0.000E+00 1.809E-03

     total cpu time spent up to now is      865.2 secs

     total energy              =    -426.99175401 Ry
     Harris-Foulkes estimate   =    -426.99216249 Ry
     estimated scf accuracy    <       0.03552769 Ry

     total magnetization       =     8.00 Bohr mag/cell
     absolute magnetization    =     8.81 Bohr mag/cell

     iteration #110     ecut=    60.00 Ry     beta= 0.70
     Davidson diagonalization with overlap
     ethr =  2.03E-07,  avg # of iterations =  6.4

     negative rho (up, down):  0.000E+00 1.740E-03

     total cpu time spent up to now is      875.4 secs

     total energy              =    -426.99200201 Ry
     Harris-Foulkes estimate   =    -426.99199806 Ry
     estimated scf accuracy    <       0.00185541 Ry

     total magnetization       =     8.00 Bohr mag/cell
     absolute magnetization    =     8.81 Bohr mag/cell

     iteration #111     ecut=    60.00 Ry     beta= 0.70
     Davidson diagonalization with overlap
     ethr =  2.03E-07,  avg # of iterations =  1.0

     negative rho (up, down):  0.000E+00 1.740E-03

     total cpu time spent up to now is      882.8 secs

     total energy              =    -426.99200361 Ry
     Harris-Foulkes estimate   =    -426.99200211 Ry
     estimated scf accuracy    <       0.00184756 Ry

     total magnetization       =     8.00 Bohr mag/cell
     absolute magnetization    =     8.81 Bohr mag/cell

     iteration #112     ecut=    60.00 Ry     beta= 0.70
     Davidson diagonalization with overlap
     ethr =  2.03E-07,  avg # of iterations =  1.0

     negative rho (up, down):  0.000E+00 1.712E-03

     total cpu time spent up to now is      890.2 secs

     total energy              =    -426.99200069 Ry
     Harris-Foulkes estimate   =    -426.99200366 Ry
     estimated scf accuracy    <       0.00187430 Ry

     total magnetization       =     8.00 Bohr mag/cell
     absolute magnetization    =     8.81 Bohr mag/cell

     iteration #113     ecut=    60.00 Ry     beta= 0.70
     Davidson diagonalization with overlap
     ethr =  2.03E-07,  avg # of iterations =  1.0

     negative rho (up, down):  0.000E+00 1.781E-03

     total cpu time spent up to now is      897.6 secs

     total energy              =    -426.99198734 Ry
     Harris-Foulkes estimate   =    -426.99200071 Ry
     estimated scf accuracy    <       0.00185486 Ry

     total magnetization       =     8.00 Bohr mag/cell
     absolute magnetization    =     8.81 Bohr mag/cell

     iteration #114     ecut=    60.00 Ry     beta= 0.70
     Davidson diagonalization with overlap
     ethr =  2.03E-07,  avg # of iterations =  1.0

     negative rho (up, down):  0.000E+00 1.712E-03

     total cpu time spent up to now is      904.9 secs

     total energy              =    -426.99200397 Ry
     Harris-Foulkes estimate   =    -426.99198819 Ry
     estimated scf accuracy    <       0.00157172 Ry

     total magnetization       =     8.00 Bohr mag/cell
     absolute magnetization    =     8.81 Bohr mag/cell

     iteration #115     ecut=    60.00 Ry     beta= 0.70
     Davidson diagonalization with overlap
     ethr =  2.03E-07,  avg # of iterations =  1.0

     negative rho (up, down):  0.000E+00 1.740E-03

     total cpu time spent up to now is      912.3 secs

     total energy              =    -426.99200250 Ry
     Harris-Foulkes estimate   =    -426.99200495 Ry
     estimated scf accuracy    <       0.00187961 Ry

     total magnetization       =     8.00 Bohr mag/cell
     absolute magnetization    =     8.81 Bohr mag/cell

     iteration #116     ecut=    60.00 Ry     beta= 0.70
     Davidson diagonalization with overlap
     ethr =  2.03E-07,  avg # of iterations =  1.0

     negative rho (up, down):  0.000E+00 1.767E-03

     total cpu time spent up to now is      919.6 secs

     total energy              =    -426.99200991 Ry
     Harris-Foulkes estimate   =    -426.99200256 Ry
     estimated scf accuracy    <       0.00183718 Ry

     total magnetization       =     8.00 Bohr mag/cell
     absolute magnetization    =     8.81 Bohr mag/cell

     iteration #117     ecut=    60.00 Ry     beta= 0.70
     Davidson diagonalization with overlap
     ethr =  2.03E-07,  avg # of iterations =  1.0

     negative rho (up, down):  0.000E+00 1.753E-03

     total cpu time spent up to now is      927.0 secs

     total energy              =    -426.99205221 Ry
     Harris-Foulkes estimate   =    -426.99201014 Ry
     estimated scf accuracy    <       0.00194220 Ry

     total magnetization       =     8.00 Bohr mag/cell
     absolute magnetization    =     8.81 Bohr mag/cell

     iteration #118     ecut=    60.00 Ry     beta= 0.70
     Davidson diagonalization with overlap
     ethr =  2.03E-07,  avg # of iterations =  5.4

     negative rho (up, down):  0.000E+00 1.559E-03

     total cpu time spent up to now is      935.7 secs

     total energy              =    -426.99191684 Ry
     Harris-Foulkes estimate   =    -426.99210364 Ry
     estimated scf accuracy    <       0.01432035 Ry

     total magnetization       =     8.00 Bohr mag/cell
     absolute magnetization    =     8.86 Bohr mag/cell

     iteration #119     ecut=    60.00 Ry     beta= 0.70
     Davidson diagonalization with overlap
     ethr =  2.03E-07,  avg # of iterations =  5.0

     negative rho (up, down):  0.000E+00 1.573E-03

     total cpu time spent up to now is      945.1 secs

     total energy              =    -426.99198029 Ry
     Harris-Foulkes estimate   =    -426.99198469 Ry
     estimated scf accuracy    <       0.00065705 Ry

     total magnetization       =     8.00 Bohr mag/cell
     absolute magnetization    =     8.80 Bohr mag/cell

     iteration #120     ecut=    60.00 Ry     beta= 0.70
     Davidson diagonalization with overlap
     ethr =  2.03E-07,  avg # of iterations =  1.0

     negative rho (up, down):  0.000E+00 1.517E-03

     total cpu time spent up to now is      952.5 secs

     total energy              =    -426.99198789 Ry
     Harris-Foulkes estimate   =    -426.99198060 Ry
     estimated scf accuracy    <       0.00057839 Ry

     total magnetization       =     8.00 Bohr mag/cell
     absolute magnetization    =     8.80 Bohr mag/cell

     iteration #121     ecut=    60.00 Ry     beta= 0.70
     Davidson diagonalization with overlap
     ethr =  2.03E-07,  avg # of iterations =  1.0

     negative rho (up, down):  0.000E+00 1.573E-03

     total cpu time spent up to now is      960.3 secs

     total energy              =    -426.99198080 Ry
     Harris-Foulkes estimate   =    -426.99198841 Ry
     estimated scf accuracy    <       0.00070918 Ry

     total magnetization       =     8.00 Bohr mag/cell
     absolute magnetization    =     8.80 Bohr mag/cell

     iteration #122     ecut=    60.00 Ry     beta= 0.70
     Davidson diagonalization with overlap
     ethr =  2.03E-07,  avg # of iterations =  1.0

     negative rho (up, down):  0.000E+00 1.628E-03

     total cpu time spent up to now is      967.6 secs

     total energy              =    -426.99198398 Ry
     Harris-Foulkes estimate   =    -426.99198116 Ry
     estimated scf accuracy    <       0.00059225 Ry

     total magnetization       =     8.00 Bohr mag/cell
     absolute magnetization    =     8.80 Bohr mag/cell

     iteration #123     ecut=    60.00 Ry     beta= 0.70
     Davidson diagonalization with overlap
     ethr =  2.03E-07,  avg # of iterations =  1.0

     negative rho (up, down):  0.000E+00 1.573E-03

     total cpu time spent up to now is      975.0 secs

     total energy              =    -426.99198639 Ry
     Harris-Foulkes estimate   =    -426.99198406 Ry
     estimated scf accuracy    <       0.00062722 Ry

     total magnetization       =     8.00 Bohr mag/cell
     absolute magnetization    =     8.80 Bohr mag/cell

     iteration #124     ecut=    60.00 Ry     beta= 0.70
     Davidson diagonalization with overlap
     ethr =  2.03E-07,  avg # of iterations =  1.0

     negative rho (up, down):  0.000E+00 1.642E-03

     total cpu time spent up to now is      982.4 secs

     total energy              =    -426.99198184 Ry
     Harris-Foulkes estimate   =    -426.99198645 Ry
     estimated scf accuracy    <       0.00066300 Ry

     total magnetization       =     8.00 Bohr mag/cell
     absolute magnetization    =     8.80 Bohr mag/cell

     iteration #125     ecut=    60.00 Ry     beta= 0.70
     Davidson diagonalization with overlap
     ethr =  2.03E-07,  avg # of iterations =  1.0

     negative rho (up, down):  0.000E+00 1.628E-03

     total cpu time spent up to now is      989.7 secs

     total energy              =    -426.99198685 Ry
     Harris-Foulkes estimate   =    -426.99198206 Ry
     estimated scf accuracy    <       0.00055367 Ry

     total magnetization       =     8.00 Bohr mag/cell
     absolute magnetization    =     8.80 Bohr mag/cell

     iteration #126     ecut=    60.00 Ry     beta= 0.70
     Davidson diagonalization with overlap
     ethr =  2.03E-07,  avg # of iterations =  1.0

     negative rho (up, down):  0.000E+00 1.628E-03

     total cpu time spent up to now is      997.1 secs

     total energy              =    -426.99196146 Ry
     Harris-Foulkes estimate   =    -426.99198708 Ry
     estimated scf accuracy    <       0.00064446 Ry

     total magnetization       =     8.00 Bohr mag/cell
     absolute magnetization    =     8.80 Bohr mag/cell

     iteration #127     ecut=    60.00 Ry     beta= 0.70
     Davidson diagonalization with overlap
     ethr =  2.03E-07,  avg # of iterations =  4.9

     negative rho (up, down):  0.000E+00 1.656E-03

     total cpu time spent up to now is     1005.9 secs

     total energy              =    -426.99196748 Ry
     Harris-Foulkes estimate   =    -426.99200293 Ry
     estimated scf accuracy    <       0.00339448 Ry

     total magnetization       =     8.00 Bohr mag/cell
     absolute magnetization    =     8.78 Bohr mag/cell

     iteration #128     ecut=    60.00 Ry     beta= 0.70
     Davidson diagonalization with overlap
     ethr =  2.03E-07,  avg # of iterations =  1.0

     negative rho (up, down):  0.000E+00 1.684E-03

     total cpu time spent up to now is     1013.3 secs

     total energy              =    -426.99193438 Ry
     Harris-Foulkes estimate   =    -426.99196917 Ry
     estimated scf accuracy    <       0.00291134 Ry

     total magnetization       =     8.00 Bohr mag/cell
     absolute magnetization    =     8.78 Bohr mag/cell

     iteration #129     ecut=    60.00 Ry     beta= 0.70
     Davidson diagonalization with overlap
     ethr =  2.03E-07,  avg # of iterations =  4.1

     negative rho (up, down):  0.000E+00 1.670E-03

     total cpu time spent up to now is     1021.5 secs

     total energy              =    -426.99199352 Ry
     Harris-Foulkes estimate   =    -426.99199279 Ry
     estimated scf accuracy    <       0.00186543 Ry

     total magnetization       =     8.00 Bohr mag/cell
     absolute magnetization    =     8.81 Bohr mag/cell

     iteration #130     ecut=    60.00 Ry     beta= 0.70
     Davidson diagonalization with overlap
     ethr =  2.03E-07,  avg # of iterations =  1.0

     negative rho (up, down):  0.000E+00 1.642E-03

     total cpu time spent up to now is     1028.9 secs

     total energy              =    -426.99199695 Ry
     Harris-Foulkes estimate   =    -426.99199367 Ry
     estimated scf accuracy    <       0.00186541 Ry

     total magnetization       =     8.00 Bohr mag/cell
     absolute magnetization    =     8.81 Bohr mag/cell

     iteration #131     ecut=    60.00 Ry     beta= 0.70
     Davidson diagonalization with overlap
     ethr =  2.03E-07,  avg # of iterations =  1.0

     negative rho (up, down):  0.000E+00 1.642E-03

     total cpu time spent up to now is     1036.3 secs

     total energy              =    -426.99200117 Ry
     Harris-Foulkes estimate   =    -426.99199702 Ry
     estimated scf accuracy    <       0.00191250 Ry

     total magnetization       =     8.00 Bohr mag/cell
     absolute magnetization    =     8.81 Bohr mag/cell

     iteration #132     ecut=    60.00 Ry     beta= 0.70
     Davidson diagonalization with overlap
     ethr =  2.03E-07,  avg # of iterations =  1.0

     negative rho (up, down):  0.000E+00 1.670E-03

     total cpu time spent up to now is     1043.7 secs

     total energy              =    -426.99199844 Ry
     Harris-Foulkes estimate   =    -426.99200126 Ry
     estimated scf accuracy    <       0.00197648 Ry

     total magnetization       =     8.00 Bohr mag/cell
     absolute magnetization    =     8.81 Bohr mag/cell

     iteration #133     ecut=    60.00 Ry     beta= 0.70
     Davidson diagonalization with overlap
     ethr =  2.03E-07,  avg # of iterations =  1.0

     negative rho (up, down):  0.000E+00 1.684E-03

     total cpu time spent up to now is     1051.1 secs

     total energy              =    -426.99200705 Ry
     Harris-Foulkes estimate   =    -426.99199847 Ry
     estimated scf accuracy    <       0.00193975 Ry

     total magnetization       =     8.00 Bohr mag/cell
     absolute magnetization    =     8.81 Bohr mag/cell

     iteration #134     ecut=    60.00 Ry     beta= 0.70
     Davidson diagonalization with overlap
     ethr =  2.03E-07,  avg # of iterations =  1.0

     negative rho (up, down):  0.000E+00 1.670E-03

     total cpu time spent up to now is     1058.6 secs

     total energy              =    -426.99200263 Ry
     Harris-Foulkes estimate   =    -426.99200728 Ry
     estimated scf accuracy    <       0.00210287 Ry

     total magnetization       =     8.00 Bohr mag/cell
     absolute magnetization    =     8.81 Bohr mag/cell

     iteration #135     ecut=    60.00 Ry     beta= 0.70
     Davidson diagonalization with overlap
     ethr =  2.03E-07,  avg # of iterations =  1.0

     negative rho (up, down):  0.000E+00 1.670E-03

     total cpu time spent up to now is     1066.0 secs

     total energy              =    -426.99200338 Ry
     Harris-Foulkes estimate   =    -426.99200271 Ry
     estimated scf accuracy    <       0.00204137 Ry

     total magnetization       =     8.00 Bohr mag/cell
     absolute magnetization    =     8.81 Bohr mag/cell

     iteration #136     ecut=    60.00 Ry     beta= 0.70
     Davidson diagonalization with overlap
     ethr =  2.03E-07,  avg # of iterations =  1.0

     negative rho (up, down):  0.000E+00 1.642E-03

     total cpu time spent up to now is     1073.3 secs

     total energy              =    -426.99200076 Ry
     Harris-Foulkes estimate   =    -426.99200340 Ry
     estimated scf accuracy    <       0.00204739 Ry

     total magnetization       =     8.00 Bohr mag/cell
     absolute magnetization    =     8.81 Bohr mag/cell

     iteration #137     ecut=    60.00 Ry     beta= 0.70
     Davidson diagonalization with overlap
     ethr =  2.03E-07,  avg # of iterations =  1.0

     negative rho (up, down):  0.000E+00 2.212E-03

     total cpu time spent up to now is     1080.7 secs

     total energy              =    -426.99174233 Ry
     Harris-Foulkes estimate   =    -426.99200079 Ry
     estimated scf accuracy    <       0.00204030 Ry

     total magnetization       =     8.00 Bohr mag/cell
     absolute magnetization    =     8.81 Bohr mag/cell

     iteration #138     ecut=    60.00 Ry     beta= 0.70
     Davidson diagonalization with overlap
     ethr =  2.03E-07,  avg # of iterations =  6.2

     negative rho (up, down):  0.000E+00 1.976E-03

     total cpu time spent up to now is     1091.5 secs

     total energy              =    -426.99128075 Ry
     Harris-Foulkes estimate   =    -426.99302545 Ry
     estimated scf accuracy    <       0.10430764 Ry

     total magnetization       =     8.00 Bohr mag/cell
     absolute magnetization    =     8.91 Bohr mag/cell

     iteration #139     ecut=    60.00 Ry     beta= 0.70
     Davidson diagonalization with overlap
     ethr =  2.03E-07,  avg # of iterations =  6.5

     negative rho (up, down):  0.000E+00 1.990E-03

     total cpu time spent up to now is     1102.5 secs

     total energy              =    -426.99199403 Ry
     Harris-Foulkes estimate   =    -426.99199541 Ry
     estimated scf accuracy    <       0.00120816 Ry

     total magnetization       =     8.00 Bohr mag/cell
     absolute magnetization    =     8.81 Bohr mag/cell

     iteration #140     ecut=    60.00 Ry     beta= 0.70
     Davidson diagonalization with overlap
     ethr =  2.03E-07,  avg # of iterations =  1.0

     negative rho (up, down):  0.000E+00 1.934E-03

     total cpu time spent up to now is     1109.9 secs

     total energy              =    -426.99199011 Ry
     Harris-Foulkes estimate   =    -426.99199420 Ry
     estimated scf accuracy    <       0.00114343 Ry

     total magnetization       =     8.00 Bohr mag/cell
     absolute magnetization    =     8.81 Bohr mag/cell

[...]
     ethr =  1.28E-08,  avg # of iterations =  1.0

     negative rho (up, down):  0.000E+00 1.809E-03

     total cpu time spent up to now is     2610.7 secs

     total energy              =    -426.99198941 Ry
     Harris-Foulkes estimate   =    -426.99198901 Ry
     estimated scf accuracy    <       0.00044450 Ry

     total magnetization       =     8.00 Bohr mag/cell
     absolute magnetization    =     8.80 Bohr mag/cell

     iteration #329     ecut=    60.00 Ry     beta= 0.70
     Davidson diagonalization with overlap
     ethr =  1.28E-08,  avg # of iterations =  1.0

     negative rho (up, down):  0.000E+00 1.809E-03

     total cpu time spent up to now is     2618.0 secs

     total energy              =    -426.99198928 Ry
     Harris-Foulkes estimate   =    -426.99198942 Ry
     estimated scf accuracy    <       0.00045937 Ry

     total magnetization       =     8.00 Bohr mag/cell
     absolute magnetization    =     8.80 Bohr mag/cell

     iteration #330     ecut=    60.00 Ry     beta= 0.70
     Davidson diagonalization with overlap
     ethr =  1.28E-08,  avg # of iterations =  1.0

     negative rho (up, down):  0.000E+00 1.809E-03

     total cpu time spent up to now is     2625.4 secs

     total energy              =    -426.99198965 Ry
     Harris-Foulkes estimate   =    -426.99198928 Ry
     estimated scf accuracy    <       0.00045727 Ry

     total magnetization       =     8.00 Bohr mag/cell
     absolute magnetization    =     8.80 Bohr mag/cell

     iteration #331     ecut=    60.00 Ry     beta= 0.70
     Davidson diagonalization with overlap
     ethr =  1.28E-08,  avg # of iterations =  1.0

     negative rho (up, down):  0.000E+00 1.809E-03

     total cpu time spent up to now is     2632.9 secs

     total energy              =    -426.99198967 Ry
     Harris-Foulkes estimate   =    -426.99198967 Ry
     estimated scf accuracy    <       0.00047383 Ry

     total magnetization       =     8.00 Bohr mag/cell
     absolute magnetization    =     8.80 Bohr mag/cell

     iteration #332     ecut=    60.00 Ry     beta= 0.70
     Davidson diagonalization with overlap
     ethr =  1.28E-08,  avg # of iterations =  1.0

     negative rho (up, down):  0.000E+00 1.809E-03

     total cpu time spent up to now is     2640.3 secs

     total energy              =    -426.99198955 Ry
     Harris-Foulkes estimate   =    -426.99198967 Ry
     estimated scf accuracy    <       0.00047215 Ry

     total magnetization       =     8.00 Bohr mag/cell
     absolute magnetization    =     8.80 Bohr mag/cell

     iteration #333     ecut=    60.00 Ry     beta= 0.70
     Davidson diagonalization with overlap
     ethr =  1.28E-08,  avg # of iterations =  1.0

     negative rho (up, down):  0.000E+00 2.170E-03

     total cpu time spent up to now is     2647.8 secs

     total energy              =    -426.99194093 Ry
     Harris-Foulkes estimate   =    -426.99198956 Ry
     estimated scf accuracy    <       0.00046942 Ry

     total magnetization       =     8.00 Bohr mag/cell
     absolute magnetization    =     8.80 Bohr mag/cell

     iteration #334     ecut=    60.00 Ry     beta= 0.70
     Davidson diagonalization with overlap
     ethr =  1.28E-08,  avg # of iterations = 10.4

     negative rho (up, down):  0.000E+00 1.865E-03

     total cpu time spent up to now is     2660.0 secs

     total energy              =    -426.99191502 Ry
     Harris-Foulkes estimate   =    -426.99204946 Ry
     estimated scf accuracy    <       0.01731426 Ry

     total magnetization       =     8.00 Bohr mag/cell
     absolute magnetization    =     8.78 Bohr mag/cell

     iteration #335     ecut=    60.00 Ry     beta= 0.70
     Davidson diagonalization with overlap
     ethr =  1.28E-08,  avg # of iterations = 10.2

     negative rho (up, down):  0.000E+00 1.823E-03

     total cpu time spent up to now is     2671.8 secs

     total energy              =    -426.99198937 Ry
     Harris-Foulkes estimate   =    -426.99198980 Ry
     estimated scf accuracy    <       0.00004628 Ry

     total magnetization       =     8.00 Bohr mag/cell
     absolute magnetization    =     8.79 Bohr mag/cell

     iteration #336     ecut=    60.00 Ry     beta= 0.70
     Davidson diagonalization with overlap
     ethr =  1.28E-08,  avg # of iterations =  1.0

     negative rho (up, down):  0.000E+00 1.837E-03

     total cpu time spent up to now is     2679.2 secs

     total energy              =    -426.99198950 Ry
     Harris-Foulkes estimate   =    -426.99198947 Ry
     estimated scf accuracy    <       0.00003059 Ry

     total magnetization       =     8.00 Bohr mag/cell
     absolute magnetization    =     8.79 Bohr mag/cell

     iteration #337     ecut=    60.00 Ry     beta= 0.70
     Davidson diagonalization with overlap
     ethr =  1.28E-08,  avg # of iterations =  1.0

     negative rho (up, down):  0.000E+00 1.837E-03

     total cpu time spent up to now is     2686.6 secs

     total energy              =    -426.99198954 Ry
     Harris-Foulkes estimate   =    -426.99198952 Ry
     estimated scf accuracy    <       0.00003421 Ry

     total magnetization       =     8.00 Bohr mag/cell
     absolute magnetization    =     8.79 Bohr mag/cell

     iteration #338     ecut=    60.00 Ry     beta= 0.70
     Davidson diagonalization with overlap
     ethr =  1.28E-08,  avg # of iterations =  1.0

     negative rho (up, down):  0.000E+00 1.823E-03

     total cpu time spent up to now is     2693.9 secs

     total energy              =    -426.99198943 Ry
     Harris-Foulkes estimate   =    -426.99198954 Ry
     estimated scf accuracy    <       0.00003653 Ry

     total magnetization       =     8.00 Bohr mag/cell
     absolute magnetization    =     8.79 Bohr mag/cell

     iteration #339     ecut=    60.00 Ry     beta= 0.70
     Davidson diagonalization with overlap
     ethr =  1.28E-08,  avg # of iterations =  1.0

     negative rho (up, down):  0.000E+00 1.823E-03

     total cpu time spent up to now is     2701.3 secs

     total energy              =    -426.99198933 Ry
     Harris-Foulkes estimate   =    -426.99198944 Ry
     estimated scf accuracy    <       0.00003221 Ry

     total magnetization       =     8.00 Bohr mag/cell
     absolute magnetization    =     8.79 Bohr mag/cell

     iteration #340     ecut=    60.00 Ry     beta= 0.70
     Davidson diagonalization with overlap
     ethr =  1.28E-08,  avg # of iterations =  1.0

     negative rho (up, down):  0.000E+00 1.823E-03

     total cpu time spent up to now is     2708.7 secs

     total energy              =    -426.99198935 Ry
     Harris-Foulkes estimate   =    -426.99198935 Ry
     estimated scf accuracy    <       0.00002696 Ry

     total magnetization       =     8.00 Bohr mag/cell
     absolute magnetization    =     8.79 Bohr mag/cell

     iteration #341     ecut=    60.00 Ry     beta= 0.70
     Davidson diagonalization with overlap
     ethr =  1.28E-08,  avg # of iterations =  1.0

     negative rho (up, down):  0.000E+00 1.823E-03

     total cpu time spent up to now is     2716.0 secs

     total energy              =    -426.99198930 Ry
     Harris-Foulkes estimate   =    -426.99198936 Ry
     estimated scf accuracy    <       0.00002665 Ry

     total magnetization       =     8.00 Bohr mag/cell
     absolute magnetization    =     8.79 Bohr mag/cell

     iteration #342     ecut=    60.00 Ry     beta= 0.70
     Davidson diagonalization with overlap
     ethr =  1.28E-08,  avg # of iterations =  1.0

     negative rho (up, down):  0.000E+00 1.809E-03

     total cpu time spent up to now is     2723.4 secs

     total energy              =    -426.99198883 Ry
     Harris-Foulkes estimate   =    -426.99198931 Ry
     estimated scf accuracy    <       0.00002402 Ry

     total magnetization       =     8.00 Bohr mag/cell
     absolute magnetization    =     8.79 Bohr mag/cell

     iteration #343     ecut=    60.00 Ry     beta= 0.70
     Davidson diagonalization with overlap
     ethr =  1.28E-08,  avg # of iterations =  2.2

     negative rho (up, down):  0.000E+00 1.753E-03

     total cpu time spent up to now is     2731.2 secs

     total energy              =    -426.99198827 Ry
     Harris-Foulkes estimate   =    -426.99198912 Ry
     estimated scf accuracy    <       0.00000594 Ry

     total magnetization       =     8.00 Bohr mag/cell
     absolute magnetization    =     8.79 Bohr mag/cell

     iteration #344     ecut=    60.00 Ry     beta= 0.70
     Davidson diagonalization with overlap
     ethr =  1.28E-08,  avg # of iterations =  5.1

     negative rho (up, down):  0.000E+00 1.809E-03

     total cpu time spent up to now is     2739.9 secs

     total energy              =    -426.99198778 Ry
     Harris-Foulkes estimate   =    -426.99199252 Ry
     estimated scf accuracy    <       0.00067090 Ry

     total magnetization       =     8.00 Bohr mag/cell
     absolute magnetization    =     8.80 Bohr mag/cell

     iteration #345     ecut=    60.00 Ry     beta= 0.70
     Davidson diagonalization with overlap
     ethr =  1.28E-08,  avg # of iterations =  4.4

     negative rho (up, down):  0.000E+00 1.809E-03

     total cpu time spent up to now is     2749.1 secs

     total energy              =    -426.99198942 Ry
     Harris-Foulkes estimate   =    -426.99198967 Ry
     estimated scf accuracy    <       0.00012671 Ry

     total magnetization       =     8.00 Bohr mag/cell
     absolute magnetization    =     8.80 Bohr mag/cell

     iteration #346     ecut=    60.00 Ry     beta= 0.70
     Davidson diagonalization with overlap
     ethr =  1.28E-08,  avg # of iterations =  1.0

     negative rho (up, down):  0.000E+00 1.809E-03

     total cpu time spent up to now is     2756.5 secs

     total energy              =    -426.99198944 Ry
     Harris-Foulkes estimate   =    -426.99198944 Ry
     estimated scf accuracy    <       0.00011392 Ry

     total magnetization       =     8.00 Bohr mag/cell
     absolute magnetization    =     8.80 Bohr mag/cell

     iteration #347     ecut=    60.00 Ry     beta= 0.70
     Davidson diagonalization with overlap
     ethr =  1.28E-08,  avg # of iterations =  1.0

     negative rho (up, down):  0.000E+00 1.809E-03

     total cpu time spent up to now is     2763.9 secs

     total energy              =    -426.99198932 Ry
     Harris-Foulkes estimate   =    -426.99198944 Ry
     estimated scf accuracy    <       0.00011506 Ry

     total magnetization       =     8.00 Bohr mag/cell
     absolute magnetization    =     8.80 Bohr mag/cell

     iteration #348     ecut=    60.00 Ry     beta= 0.70
     Davidson diagonalization with overlap
     ethr =  1.28E-08,  avg # of iterations =  1.0

     negative rho (up, down):  0.000E+00 1.809E-03

     total cpu time spent up to now is     2771.2 secs

     total energy              =    -426.99198919 Ry
     Harris-Foulkes estimate   =    -426.99198933 Ry
     estimated scf accuracy    <       0.00011352 Ry

     total magnetization       =     8.00 Bohr mag/cell
     absolute magnetization    =     8.80 Bohr mag/cell

     iteration #349     ecut=    60.00 Ry     beta= 0.70
     Davidson diagonalization with overlap
     ethr =  1.28E-08,  avg # of iterations =  1.0

     negative rho (up, down):  0.000E+00 1.809E-03

     total cpu time spent up to now is     2778.5 secs

     total energy              =    -426.99198927 Ry
     Harris-Foulkes estimate   =    -426.99198921 Ry
     estimated scf accuracy    <       0.00010656 Ry

     total magnetization       =     8.00 Bohr mag/cell
     absolute magnetization    =     8.80 Bohr mag/cell

     iteration #350     ecut=    60.00 Ry     beta= 0.70
     Davidson diagonalization with overlap
     ethr =  1.28E-08,  avg # of iterations =  1.0

     negative rho (up, down):  0.000E+00 1.809E-03

     total cpu time spent up to now is     2785.9 secs

     total energy              =    -426.99198927 Ry
     Harris-Foulkes estimate   =    -426.99198927 Ry
     estimated scf accuracy    <       0.00010973 Ry

     total magnetization       =     8.00 Bohr mag/cell
     absolute magnetization    =     8.80 Bohr mag/cell

     iteration #351     ecut=    60.00 Ry     beta= 0.70
     Davidson diagonalization with overlap
     ethr =  1.28E-08,  avg # of iterations =  1.0

     negative rho (up, down):  0.000E+00 1.809E-03

     total cpu time spent up to now is     2793.3 secs

     total energy              =    -426.99198917 Ry
     Harris-Foulkes estimate   =    -426.99198927 Ry
     estimated scf accuracy    <       0.00010870 Ry

     total magnetization       =     8.00 Bohr mag/cell
     absolute magnetization    =     8.80 Bohr mag/cell

     iteration #352     ecut=    60.00 Ry     beta= 0.70
     Davidson diagonalization with overlap
     ethr =  1.28E-08,  avg # of iterations =  1.0

     negative rho (up, down):  0.000E+00 1.809E-03

     total cpu time spent up to now is     2800.7 secs

     total energy              =    -426.99198841 Ry
     Harris-Foulkes estimate   =    -426.99198917 Ry
     estimated scf accuracy    <       0.00010713 Ry

     total magnetization       =     8.00 Bohr mag/cell
     absolute magnetization    =     8.80 Bohr mag/cell

     iteration #353     ecut=    60.00 Ry     beta= 0.70
     Davidson diagonalization with overlap
     ethr =  1.28E-08,  avg # of iterations =  1.0

     negative rho (up, down):  0.000E+00 1.962E-03

     total cpu time spent up to now is     2808.1 secs

     total energy              =    -426.99198006 Ry
     Harris-Foulkes estimate   =    -426.99198853 Ry
     estimated scf accuracy    <       0.00008251 Ry

     total magnetization       =     8.00 Bohr mag/cell
     absolute magnetization    =     8.80 Bohr mag/cell

     iteration #354     ecut=    60.00 Ry     beta= 0.70
     Davidson diagonalization with overlap
     ethr =  1.28E-08,  avg # of iterations =  5.5

     negative rho (up, down):  0.000E+00 1.851E-03

     total cpu time spent up to now is     2818.5 secs

     total energy              =    -426.99197117 Ry
     Harris-Foulkes estimate   =    -426.99200240 Ry
     estimated scf accuracy    <       0.00366759 Ry

     total magnetization       =     8.00 Bohr mag/cell
     absolute magnetization    =     8.78 Bohr mag/cell

     iteration #355     ecut=    60.00 Ry     beta= 0.70
     Davidson diagonalization with overlap
     ethr =  1.28E-08,  avg # of iterations =  5.9

     negative rho (up, down):  0.000E+00 1.823E-03

     Magnetic moment per site:
     atom:    1    charge:   14.9278    magn:    3.8366    constr:    0.0000
     atom:    2    charge:   14.9977    magn:    4.1975    constr:    0.0000

     total cpu time spent up to now is     2829.0 secs

     End of self-consistent calculation

 ------ SPIN UP ------------


          k = 0.1250 0.1250 0.1250 ( 38983 PWs)   bands (ev):

   -84.3281 -83.9653 -53.0967 -53.0967 -53.0967 -52.7542 -52.7542 -52.7542
    -5.4015  -5.4015  -5.4014  -5.4008  -5.4008  -5.2385  -5.2385  -5.0843
    -5.0843  -5.0843  -3.9952

          k = 0.1250 0.1250 0.3750 ( 38966 PWs)   bands (ev):

   -84.3281 -83.9653 -53.0967 -53.0967 -53.0967 -52.7542 -52.7542 -52.7542
    -5.4015  -5.4014  -5.4014  -5.4008  -5.4007  -5.2385  -5.2384  -5.0843
    -5.0843  -5.0843  -3.9661

          k = 0.1250 0.3750 0.3750 ( 39024 PWs)   bands (ev):

   -84.3281 -83.9653 -53.0967 -53.0967 -53.0967 -52.7542 -52.7542 -52.7542
    -5.4015  -5.4015  -5.4015  -5.4007  -5.4006  -5.2385  -5.2383  -5.0844
    -5.0844  -5.0844  -3.9508

          k = 0.3750 0.3750 0.3750 ( 39000 PWs)   bands (ev):

   -84.3281 -83.9653 -53.0967 -53.0967 -53.0967 -52.7542 -52.7542 -52.7542
    -5.4015  -5.4015  -5.4015  -5.4006  -5.4006  -5.2383  -5.2383  -5.0844
    -5.0844  -5.0844  -3.9419

 ------ SPIN DOWN ----------


          k = 0.1250 0.1250 0.1250 ( 38983 PWs)   bands (ev):

   -79.6018 -79.4306 -48.4760 -48.4760 -48.4760 -48.3234 -48.3234 -48.3234
    -3.5077  -3.2791  -1.7411  -1.7411  -1.7406  -1.6613  -1.6613  -1.6560
    -1.6555  -1.6555  -1.4506

          k = 0.1250 0.1250 0.3750 ( 38966 PWs)   bands (ev):

   -79.6018 -79.4306 -48.4760 -48.4760 -48.4760 -48.3234 -48.3234 -48.3234
    -3.4807  -3.2920  -1.7423  -1.7419  -1.7406  -1.6608  -1.6578  -1.6577
    -1.6569  -1.6555  -1.4503

          k = 0.1250 0.3750 0.3750 ( 39024 PWs)   bands (ev):

   -79.6018 -79.4306 -48.4760 -48.4760 -48.4760 -48.3234 -48.3234 -48.3234
    -3.4675  -3.2858  -1.7430  -1.7427  -1.7422  -1.6590  -1.6585  -1.6565
    -1.6565  -1.6556  -1.4480

          k = 0.3750 0.3750 0.3750 ( 39000 PWs)   bands (ev):

   -79.6018 -79.4306 -48.4760 -48.4760 -48.4760 -48.3234 -48.3234 -48.3234
    -3.4578  -3.2766  -1.7443  -1.7443  -1.7436  -1.6598  -1.6598  -1.6584
    -1.6555  -1.6555  -1.4434

     the Fermi energy is    -1.8977 ev

!    total energy              =    -426.99198935 Ry
     Harris-Foulkes estimate   =    -426.99198966 Ry
     estimated scf accuracy    <       0.00000038 Ry

     The total energy is the sum of the following terms:

     one-electron contribution =    -539.39083330 Ry
     hartree contribution      =     263.99631892 Ry
     xc contribution           =     -55.61680163 Ry
     ewald contribution        =     -95.97006968 Ry
     smearing contrib. (-TS)   =      -0.01060366 Ry

     total magnetization       =     8.00 Bohr mag/cell
     absolute magnetization    =     8.79 Bohr mag/cell

     convergence has been achieved in 355 iterations

     Writing output data file mn-9.03.save/

     init_run     :      3.91s CPU      4.17s WALL (       1 calls)
     electrons    :   2673.77s CPU   2824.25s WALL (       1 calls)

     Called by init_run:
     wfcinit      :      1.22s CPU      1.24s WALL (       1 calls)
     potinit      :      0.98s CPU      1.02s WALL (       1 calls)
     hinit0       :      0.47s CPU      0.49s WALL (       1 calls)

     Called by electrons:
     c_bands      :   1132.91s CPU   1152.11s WALL (     355 calls)
     sum_band     :    893.99s CPU    957.69s WALL (     355 calls)
     v_of_rho     :    254.82s CPU    263.03s WALL (     356 calls)
     newd         :    302.44s CPU    359.32s WALL (     356 calls)
     mix_rho      :     60.40s CPU     61.94s WALL (     355 calls)

     Called by c_bands:
     init_us_2    :     12.10s CPU     12.20s WALL (    5688 calls)
     cegterg      :   1080.95s CPU   1099.89s WALL (    2840 calls)

     Called by sum_band:
     sum_band:bec :      0.07s CPU      0.07s WALL (    2840 calls)
     addusdens    :    660.56s CPU    717.39s WALL (     355 calls)

     Called by *egterg:
     h_psi        :    792.60s CPU    810.68s WALL (    9283 calls)
     s_psi        :     49.02s CPU     49.20s WALL (    9283 calls)
     g_psi        :      3.93s CPU      3.95s WALL (    6435 calls)
     cdiaghg      :      6.01s CPU      6.05s WALL (    9275 calls)

     Called by h_psi:
     h_psi:pot    :    789.69s CPU    807.75s WALL (    9283 calls)
     h_psi:calbec :     73.38s CPU     73.92s WALL (    9283 calls)
     vloc_psi     :    664.42s CPU    681.78s WALL (    9283 calls)
     add_vuspsi   :     51.81s CPU     52.00s WALL (    9283 calls)

     General routines
     calbec       :    103.21s CPU    103.93s WALL (   12123 calls)
     fft          :    174.43s CPU    183.39s WALL (    8894 calls)
     ffts         :      7.60s CPU      7.88s WALL (    1422 calls)
     fftw         :    718.47s CPU    737.68s WALL (  310670 calls)
     interpolate  :     20.91s CPU     21.76s WALL (     712 calls)

     Parallel routines
     fft_scatt_xy :     94.40s CPU     96.63s WALL (  320986 calls)
     fft_scatt_yz :    355.76s CPU    371.36s WALL (  320986 calls)

     PWSCF        :  44m38.41s CPU  47m 9.29s WALL


   This run was terminated on:  23:13:50  27Jul2022            

=------------------------------------------------------------------------------=
   JOB DONE.
=------------------------------------------------------------------------------=
