
     Program PWSCF v.6.4.1 starts on 24Aug2022 at  1:35:30 

     This program is part of the open-source Quantum ESPRESSO suite
     for quantum simulation of materials; please cite
         "P. Giannozzi et al., J. Phys.:Condens. Matter 21 395502 (2009);
         "P. Giannozzi et al., J. Phys.:Condens. Matter 29 465901 (2017);
          URL http://www.quantum-espresso.org", 
     in publications or presentations arising from this work. More details at
     http://www.quantum-espresso.org/quote

     Parallel version (MPI), running on     6 processors

     MPI processes distributed on     1 nodes
     R & G space division:  proc/nbgrp/npool/nimage =       6
     Reading input from distance-2.2.in

     Current dimensions of program PWSCF are:
     Max number of different atomic species (ntypx) = 10
     Max number of k-points (npk) =  40000
     Max angular momentum in pseudopotentials (lmaxx) =  3

     IMPORTANT: XC functional enforced from input :
     Exchange-correlation      = RVV10 ( 1  4 13  4 3 0)
     Any further DFT definition will be discarded
     Please, verify this is what you really want

               file H.pbe-rrkjus.UPF: wavefunction(s)  1S renormalized
               file V.pbe-spnl-rrkjus_psl.1.0.0.UPF: wavefunction(s)  3P 3D renormalized

     Subspace diagonalization in iterative solution of the eigenvalue problem:
     a serial algorithm will be used


     Parallelization info
     --------------------
     sticks:   dense  smooth     PW     G-vecs:    dense   smooth      PW
     Min        3051    1746    432               270999   117096   14629
     Max        3053    1747    437               271001   117099   14630
     Sum       18313   10477   2611              1626001   702581   87777



     bravais-lattice index     =            4
     lattice parameter (alat)  =      23.2937  a.u.
     unit-cell volume          =    8879.8548 (a.u.)^3
     number of atoms/cell      =           52
     number of atomic types    =            3
     number of electrons       =       211.00
     number of Kohn-Sham states=          127
     kinetic-energy cutoff     =      70.0000  Ry
     charge density cutoff     =     490.0000  Ry
     convergence threshold     =      1.0E-06
     mixing beta               =       0.7000
     number of iterations used =            8  plain     mixing
     Exchange-correlation      = RVV10 ( 1  4 13  4 3 0)

     celldm(1)=  23.293684  celldm(2)=   0.000000  celldm(3)=   0.811261
     celldm(4)=   0.000000  celldm(5)=   0.000000  celldm(6)=   0.000000

     crystal axes: (cart. coord. in units of alat)
               a(1) = (   1.000000   0.000000   0.000000 )  
               a(2) = (  -0.500000   0.866025   0.000000 )  
               a(3) = (   0.000000   0.000000   0.811261 )  

     reciprocal axes: (cart. coord. in units 2 pi/alat)
               b(1) = (  1.000000  0.577350 -0.000000 )  
               b(2) = (  0.000000  1.154701  0.000000 )  
               b(3) = (  0.000000 -0.000000  1.232649 )  


     PseudoPot. # 1 for H  read from file:
     /home/cristian/Escritorio/Proyecto_Grafeno/pseudopotenciales/H.pbe-rrkjus.UPF
     MD5 check sum: 7cc9d459525c9a0585f487a71c3c9563
     Pseudo is Ultrasoft, Zval =  1.0
     Generated by new atomic code, or converted to UPF format
     Using radial grid of 1061 points,  2 beta functions with: 
                l(1) =   0
                l(2) =   0
     Q(r) pseudized with 0 coefficients 


     PseudoPot. # 2 for C  read from file:
     /home/cristian/Escritorio/Proyecto_Grafeno/pseudopotenciales/C.pbe-n-rrkjus_psl.1.0.0.UPF
     MD5 check sum: 1fdd950c42eb37d8afe3dd2f8d12311e
     Pseudo is Ultrasoft + core correction, Zval =  4.0
     Generated using "atomic" code by A. Dal Corso v.6.3MaX
     Using radial grid of 1073 points,  4 beta functions with: 
                l(1) =   0
                l(2) =   0
                l(3) =   1
                l(4) =   1
     Q(r) pseudized with 0 coefficients 


     PseudoPot. # 3 for V  read from file:
     /home/cristian/Escritorio/Proyecto_Grafeno/pseudopotenciales/V.pbe-spnl-rrkjus_psl.1.0.0.UPF
     MD5 check sum: 79b3eb63147daf0b665d9f1bcc691206
     Pseudo is Ultrasoft + core correction, Zval = 13.0
     Generated using "atomic" code by A. Dal Corso v.6.2.2
     Using radial grid of 1181 points,  6 beta functions with: 
                l(1) =   0
                l(2) =   0
                l(3) =   1
                l(4) =   1
                l(5) =   2
                l(6) =   2
     Q(r) pseudized with 0 coefficients 


     vdW kernel table read from file rVV10_kernel_table
     MD5 check sum: b8e2538accc0c0b3206b45ba4daaba6c

     atomic species   valence    mass     pseudopotential
        H              1.00     1.00794     H ( 1.00)
        C              4.00    12.01070     C ( 1.00)
        V             13.00    50.94150     V ( 1.00)

     Starting magnetic structure 
     atomic species   magnetization
        H            0.500
        C            0.300
        V            0.800

     No symmetry found


                                    s                        frac. trans.

      isym =  1     identity                                     

 cryst.   s( 1) = (     1          0          0      )
                  (     0          1          0      )
                  (     0          0          1      )

 cart.    s( 1) = (  1.0000000  0.0000000  0.0000000 )
                  (  0.0000000  1.0000000  0.0000000 )
                  (  0.0000000  0.0000000  1.0000000 )


     point group C_1 (1)    
     there are  1 classes
     the character table:

       E    
A      1.00

     the symmetry operations in each class and the name of the first element:

     E        1
          identity                                               

   Cartesian axes

     site n.     atom                  positions (alat units)
         1           H   tau(   1) = (   0.2666667   0.4618802   0.1784775  )
         2           H   tau(   2) = (   0.2666667   0.4618802   0.2394901  )
         3           C   tau(   3) = (   0.0000000   0.0000000   0.0000000  )
         4           C   tau(   4) = (   0.0000000   0.1154701   0.0000000  )
         5           C   tau(   5) = (  -0.1000000   0.1732051   0.0000000  )
         6           C   tau(   6) = (  -0.1000000   0.2886751   0.0000000  )
         7           C   tau(   7) = (  -0.2000000   0.3464102   0.0000000  )
         8           C   tau(   8) = (  -0.2000000   0.4618802   0.0000000  )
         9           C   tau(   9) = (  -0.3000000   0.5196152   0.0000000  )
        10           C   tau(  10) = (  -0.3000000   0.6350853   0.0000000  )
        11           C   tau(  11) = (  -0.4000000   0.6928203   0.0000000  )
        12           C   tau(  12) = (  -0.4000000   0.8082904   0.0000000  )
        13           C   tau(  13) = (   0.2000000   0.0000000   0.0000000  )
        14           C   tau(  14) = (   0.2000000   0.1154701   0.0000000  )
        15           C   tau(  15) = (   0.1000000   0.1732051   0.0000000  )
        16           C   tau(  16) = (   0.1000000   0.2886751   0.0000000  )
        17           C   tau(  17) = (   0.0000000   0.3464102   0.0000000  )
        18           C   tau(  18) = (   0.0000000   0.4618802   0.0000000  )
        19           C   tau(  19) = (  -0.1000000   0.5196152   0.0000000  )
        20           C   tau(  20) = (  -0.1000000   0.6350853   0.0000000  )
        21           C   tau(  21) = (  -0.2000000   0.6928203   0.0000000  )
        22           C   tau(  22) = (  -0.2000000   0.8082904   0.0000000  )
        23           C   tau(  23) = (   0.4000000   0.0000000   0.0000000  )
        24           C   tau(  24) = (   0.4000000   0.1154701   0.0000000  )
        25           C   tau(  25) = (   0.3000000   0.1732051   0.0000000  )
        26           C   tau(  26) = (   0.3000000   0.2886751   0.0000000  )
        27           C   tau(  27) = (   0.2000000   0.3464102   0.0000000  )
        28           V   tau(  28) = (   0.2000000   0.4618802   0.0000000  )
        29           C   tau(  29) = (   0.1000000   0.5196152   0.0000000  )
        30           C   tau(  30) = (   0.1000000   0.6350853   0.0000000  )
        31           C   tau(  31) = (   0.0000000   0.6928203   0.0000000  )
        32           C   tau(  32) = (   0.0000000   0.8082904   0.0000000  )
        33           C   tau(  33) = (   0.6000000   0.0000000   0.0000000  )
        34           C   tau(  34) = (   0.6000000   0.1154701   0.0000000  )
        35           C   tau(  35) = (   0.5000000   0.1732051   0.0000000  )
        36           C   tau(  36) = (   0.5000000   0.2886751   0.0000000  )
        37           C   tau(  37) = (   0.4000000   0.3464102   0.0000000  )
        38           C   tau(  38) = (   0.4000000   0.4618802   0.0000000  )
        39           C   tau(  39) = (   0.3000000   0.5196152   0.0000000  )
        40           C   tau(  40) = (   0.3000000   0.6350853   0.0000000  )
        41           C   tau(  41) = (   0.2000000   0.6928203   0.0000000  )
        42           C   tau(  42) = (   0.2000000   0.8082904   0.0000000  )
        43           C   tau(  43) = (   0.8000000   0.0000000   0.0000000  )
        44           C   tau(  44) = (   0.8000000   0.1154701   0.0000000  )
        45           C   tau(  45) = (   0.7000000   0.1732051   0.0000000  )
        46           C   tau(  46) = (   0.7000000   0.2886751   0.0000000  )
        47           C   tau(  47) = (   0.6000000   0.3464102   0.0000000  )
        48           C   tau(  48) = (   0.6000000   0.4618802   0.0000000  )
        49           C   tau(  49) = (   0.5000000   0.5196152   0.0000000  )
        50           C   tau(  50) = (   0.5000000   0.6350853   0.0000000  )
        51           C   tau(  51) = (   0.4000000   0.6928203   0.0000000  )
        52           C   tau(  52) = (   0.4000000   0.8082904   0.0000000  )

   Crystallographic axes

     site n.     atom                  positions (cryst. coord.)
         1           H   tau(   1) = (  0.5333333  0.5333333  0.2200000  )
         2           H   tau(   2) = (  0.5333333  0.5333333  0.2952072  )
         3           C   tau(   3) = (  0.0000000  0.0000000  0.0000000  )
         4           C   tau(   4) = (  0.0666667  0.1333333  0.0000000  )
         5           C   tau(   5) = (  0.0000000  0.2000000  0.0000000  )
         6           C   tau(   6) = (  0.0666667  0.3333333  0.0000000  )
         7           C   tau(   7) = (  0.0000000  0.4000000  0.0000000  )
         8           C   tau(   8) = (  0.0666667  0.5333333  0.0000000  )
         9           C   tau(   9) = (  0.0000000  0.6000000  0.0000000  )
        10           C   tau(  10) = (  0.0666667  0.7333333  0.0000000  )
        11           C   tau(  11) = (  0.0000000  0.8000000  0.0000000  )
        12           C   tau(  12) = (  0.0666667  0.9333333  0.0000000  )
        13           C   tau(  13) = (  0.2000000  0.0000000  0.0000000  )
        14           C   tau(  14) = (  0.2666667  0.1333333  0.0000000  )
        15           C   tau(  15) = (  0.2000000  0.2000000  0.0000000  )
        16           C   tau(  16) = (  0.2666667  0.3333333  0.0000000  )
        17           C   tau(  17) = (  0.2000000  0.4000000  0.0000000  )
        18           C   tau(  18) = (  0.2666667  0.5333333  0.0000000  )
        19           C   tau(  19) = (  0.2000000  0.6000000  0.0000000  )
        20           C   tau(  20) = (  0.2666667  0.7333333  0.0000000  )
        21           C   tau(  21) = (  0.2000000  0.8000000  0.0000000  )
        22           C   tau(  22) = (  0.2666667  0.9333333  0.0000000  )
        23           C   tau(  23) = (  0.4000000  0.0000000  0.0000000  )
        24           C   tau(  24) = (  0.4666667  0.1333333  0.0000000  )
        25           C   tau(  25) = (  0.4000000  0.2000000  0.0000000  )
        26           C   tau(  26) = (  0.4666667  0.3333333  0.0000000  )
        27           C   tau(  27) = (  0.4000000  0.4000000  0.0000000  )
        28           V   tau(  28) = (  0.4666667  0.5333333  0.0000000  )
        29           C   tau(  29) = (  0.4000000  0.6000000  0.0000000  )
        30           C   tau(  30) = (  0.4666667  0.7333333  0.0000000  )
        31           C   tau(  31) = (  0.4000000  0.8000000  0.0000000  )
        32           C   tau(  32) = (  0.4666667  0.9333333  0.0000000  )
        33           C   tau(  33) = (  0.6000000  0.0000000  0.0000000  )
        34           C   tau(  34) = (  0.6666667  0.1333333  0.0000000  )
        35           C   tau(  35) = (  0.6000000  0.2000000  0.0000000  )
        36           C   tau(  36) = (  0.6666667  0.3333333  0.0000000  )
        37           C   tau(  37) = (  0.6000000  0.4000000  0.0000000  )
        38           C   tau(  38) = (  0.6666667  0.5333333  0.0000000  )
        39           C   tau(  39) = (  0.6000000  0.6000000  0.0000000  )
        40           C   tau(  40) = (  0.6666667  0.7333333  0.0000000  )
        41           C   tau(  41) = (  0.6000000  0.8000000  0.0000000  )
        42           C   tau(  42) = (  0.6666667  0.9333333  0.0000000  )
        43           C   tau(  43) = (  0.8000000  0.0000000  0.0000000  )
        44           C   tau(  44) = (  0.8666667  0.1333333  0.0000000  )
        45           C   tau(  45) = (  0.8000000  0.2000000  0.0000000  )
        46           C   tau(  46) = (  0.8666667  0.3333333  0.0000000  )
        47           C   tau(  47) = (  0.8000000  0.4000000  0.0000000  )
        48           C   tau(  48) = (  0.8666667  0.5333333  0.0000000  )
        49           C   tau(  49) = (  0.8000000  0.6000000  0.0000000  )
        50           C   tau(  50) = (  0.8666667  0.7333333  0.0000000  )
        51           C   tau(  51) = (  0.8000000  0.8000000  0.0000000  )
        52           C   tau(  52) = (  0.8666667  0.9333333  0.0000000  )

     number of k points=     1  Marzari-Vanderbilt smearing, width (Ry)=  0.0010
                       cart. coord. in units 2pi/alat
        k(    1) = (   0.0000000   0.0000000   0.0000000), wk =   1.0000000

                       cryst. coord.
        k(    1) = (   0.0000000   0.0000000   0.0000000), wk =   1.0000000

     Dense  grid:  1626001 G-vectors     FFT dimensions: ( 180, 180, 135)

     Smooth grid:   702581 G-vectors     FFT dimensions: ( 125, 125, 108)

     Dynamical RAM for                 wfc:      28.36 MB

     Dynamical RAM for     wfc (w. buffer):      85.09 MB

     Dynamical RAM for           str. fact:      12.41 MB

     Dynamical RAM for           local pot:       0.00 MB

     Dynamical RAM for          nlocal pot:      92.46 MB

     Dynamical RAM for                qrad:      19.73 MB

     Dynamical RAM for          rho,v,vnew:      58.92 MB

     Dynamical RAM for               rhoin:      19.64 MB

     Dynamical RAM for            rho*nmix:     132.32 MB

     Dynamical RAM for           G-vectors:      16.40 MB

     Dynamical RAM for          h,s,v(r/c):      11.81 MB

     Dynamical RAM for          <psi|beta>:       0.80 MB

     Dynamical RAM for                 psi:     113.46 MB

     Dynamical RAM for                hpsi:     113.46 MB

     Dynamical RAM for                spsi:     113.46 MB

     Dynamical RAM for      wfcinit/wfcrot:      93.90 MB

     Dynamical RAM for           addusdens:     975.89 MB

     Estimated static dynamical RAM per process >     487.63 MB

     Estimated max dynamical RAM per process >       1.43 GB

     Estimated total dynamical RAM >       8.58 GB
     Generating pointlists ...
     new r_m :   0.0252 (alat units)  0.5862 (a.u.) for type    1
     new r_m :   0.0476 (alat units)  1.1095 (a.u.) for type    2
     new r_m :   0.0476 (alat units)  1.1095 (a.u.) for type    3

     Check: negative core charge=   -0.000002

     Initial potential from superposition of free atoms

     starting charge  210.80465, renormalised to  211.00000

     negative rho (up, down):  1.269E-04 1.694E-02


---------------------------------------------------------------------------------
Carrying out rVV10 run using the following parameters:
Nqs =      20    Nr_points =    1024   r_max =   100.000
b_value =  6.30000    beta =  0.00901
     q_mesh =  0.00010000  0.00030000  0.00058939  0.00100810
               0.00161396  0.00249058  0.00375900  0.00559430
               0.00824984  0.01209221  0.01765183  0.02569619
               0.03733578  0.05417739  0.07854596  0.11380545
               0.16482331  0.23864234  0.34545298  0.50000000

Gradients computed in Reciprocal space

---------------------------------------------------------------------------------


     Starting wfcs are  208 randomized atomic wfcs

     total cpu time spent up to now is       74.3 secs

     Self-consistent Calculation

     iteration #  1     ecut=    70.00 Ry     beta= 0.70
     Davidson diagonalization with overlap
     ethr =  1.00E-02,  avg # of iterations =  2.5

     negative rho (up, down):  3.161E-04 1.375E-02

     total cpu time spent up to now is      202.2 secs

     total energy              =    -752.77177649 Ry
     Harris-Foulkes estimate   =    -757.02704781 Ry
     estimated scf accuracy    <      12.15762488 Ry

     total magnetization       =     5.00 Bohr mag/cell
     absolute magnetization    =     6.06 Bohr mag/cell

     iteration #  2     ecut=    70.00 Ry     beta= 0.70
     Davidson diagonalization with overlap
     ethr =  5.76E-03,  avg # of iterations =  6.5

     negative rho (up, down):  4.911E-03 1.713E-01

     total cpu time spent up to now is      322.1 secs

     total energy              =    -746.35076151 Ry
     Harris-Foulkes estimate   =    -768.44943277 Ry
     estimated scf accuracy    <      75.91592640 Ry

     total magnetization       =     3.01 Bohr mag/cell
     absolute magnetization    =     3.36 Bohr mag/cell

     iteration #  3     ecut=    70.00 Ry     beta= 0.70
     Davidson diagonalization with overlap
     ethr =  5.76E-03,  avg # of iterations =  5.0

     negative rho (up, down):  1.132E-03 2.534E-02

     total cpu time spent up to now is      493.5 secs

     total energy              =    -755.71849195 Ry
     Harris-Foulkes estimate   =    -758.09526181 Ry
     estimated scf accuracy    <      10.73847308 Ry

     total magnetization       =     5.00 Bohr mag/cell
     absolute magnetization    =     5.77 Bohr mag/cell

     iteration #  4     ecut=    70.00 Ry     beta= 0.70
     Davidson diagonalization with overlap
     ethr =  5.09E-03,  avg # of iterations =  3.5

     negative rho (up, down):  4.622E-02 2.111E-02

     total cpu time spent up to now is      588.8 secs

     total energy              =    -757.02815655 Ry
     Harris-Foulkes estimate   =    -757.50604665 Ry
     estimated scf accuracy    <       1.40510278 Ry

     total magnetization       =     1.00 Bohr mag/cell
     absolute magnetization    =     1.75 Bohr mag/cell

     iteration #  5     ecut=    70.00 Ry     beta= 0.70
     Davidson diagonalization with overlap
     ethr =  6.66E-04,  avg # of iterations =  6.5

     negative rho (up, down):  5.382E-02 1.806E-02

     total cpu time spent up to now is      700.6 secs

     total energy              =    -757.20806039 Ry
     Harris-Foulkes estimate   =    -757.33323175 Ry
     estimated scf accuracy    <       0.40730734 Ry

     total magnetization       =     1.00 Bohr mag/cell
     absolute magnetization    =     1.52 Bohr mag/cell

     iteration #  6     ecut=    70.00 Ry     beta= 0.70
     Davidson diagonalization with overlap
     ethr =  1.93E-04,  avg # of iterations =  4.0

     negative rho (up, down):  2.821E-02 1.898E-02

     total cpu time spent up to now is      804.5 secs

     total energy              =    -757.29369552 Ry
     Harris-Foulkes estimate   =    -757.31594334 Ry
     estimated scf accuracy    <       0.18119919 Ry

     total magnetization       =     1.00 Bohr mag/cell
     absolute magnetization    =     1.45 Bohr mag/cell

     iteration #  7     ecut=    70.00 Ry     beta= 0.70
     Davidson diagonalization with overlap
     ethr =  8.59E-05,  avg # of iterations =  3.0

     negative rho (up, down):  3.348E-02 1.368E-02

     total cpu time spent up to now is      903.6 secs

     total energy              =    -757.31624775 Ry
     Harris-Foulkes estimate   =    -757.32586563 Ry
     estimated scf accuracy    <       0.04459941 Ry

     total magnetization       =     1.00 Bohr mag/cell
     absolute magnetization    =     1.37 Bohr mag/cell

     iteration #  8     ecut=    70.00 Ry     beta= 0.70
     Davidson diagonalization with overlap
     ethr =  2.11E-05,  avg # of iterations =  6.0

     negative rho (up, down):  3.130E-02 2.445E-02

     total cpu time spent up to now is     1015.5 secs

     total energy              =    -757.32367146 Ry
     Harris-Foulkes estimate   =    -757.33145865 Ry
     estimated scf accuracy    <       0.04213969 Ry

     total magnetization       =     1.00 Bohr mag/cell
     absolute magnetization    =     1.38 Bohr mag/cell

     iteration #  9     ecut=    70.00 Ry     beta= 0.70
     Davidson diagonalization with overlap
     ethr =  2.00E-05,  avg # of iterations =  5.5

     negative rho (up, down):  3.701E-02 1.875E-02

     total cpu time spent up to now is     1113.9 secs

     total energy              =    -757.32653710 Ry
     Harris-Foulkes estimate   =    -757.33167021 Ry
     estimated scf accuracy    <       0.02530162 Ry

     total magnetization       =     1.00 Bohr mag/cell
     absolute magnetization    =     1.40 Bohr mag/cell

     iteration # 10     ecut=    70.00 Ry     beta= 0.70
     Davidson diagonalization with overlap
     ethr =  1.20E-05,  avg # of iterations =  2.0

     negative rho (up, down):  3.534E-02 1.657E-02

     total cpu time spent up to now is     1207.6 secs

     total energy              =    -757.32905185 Ry
     Harris-Foulkes estimate   =    -757.32937272 Ry
     estimated scf accuracy    <       0.01332038 Ry

     total magnetization       =     1.00 Bohr mag/cell
     absolute magnetization    =     1.41 Bohr mag/cell

     iteration # 11     ecut=    70.00 Ry     beta= 0.70
     Davidson diagonalization with overlap
     ethr =  6.31E-06,  avg # of iterations =  2.5

     negative rho (up, down):  3.425E-02 1.634E-02

     total cpu time spent up to now is     1301.1 secs

     total energy              =    -757.33051869 Ry
     Harris-Foulkes estimate   =    -757.33009881 Ry
     estimated scf accuracy    <       0.00263829 Ry

     total magnetization       =     1.00 Bohr mag/cell
     absolute magnetization    =     1.42 Bohr mag/cell

     iteration # 12     ecut=    70.00 Ry     beta= 0.70
     Davidson diagonalization with overlap
     ethr =  1.25E-06,  avg # of iterations =  3.0

     negative rho (up, down):  3.329E-02 8.947E-03

     total cpu time spent up to now is     1399.9 secs

     total energy              =    -757.33153862 Ry
     Harris-Foulkes estimate   =    -757.33075455 Ry
     estimated scf accuracy    <       0.00097439 Ry

     total magnetization       =     1.00 Bohr mag/cell
     absolute magnetization    =     1.43 Bohr mag/cell

     iteration # 13     ecut=    70.00 Ry     beta= 0.70
     Davidson diagonalization with overlap
     ethr =  4.62E-07,  avg # of iterations =  5.0

     negative rho (up, down):  3.362E-02 4.096E-03

     total cpu time spent up to now is     1496.0 secs

     total energy              =    -757.33165404 Ry
     Harris-Foulkes estimate   =    -757.33161358 Ry
     estimated scf accuracy    <       0.00037211 Ry

     total magnetization       =     1.00 Bohr mag/cell
     absolute magnetization    =     1.46 Bohr mag/cell

     iteration # 14     ecut=    70.00 Ry     beta= 0.70
     Davidson diagonalization with overlap
     ethr =  1.76E-07,  avg # of iterations =  2.0

     negative rho (up, down):  3.387E-02 3.035E-03

     total cpu time spent up to now is     1589.1 secs

     total energy              =    -757.33169836 Ry
     Harris-Foulkes estimate   =    -757.33168950 Ry
     estimated scf accuracy    <       0.00010524 Ry

     total magnetization       =     1.00 Bohr mag/cell
     absolute magnetization    =     1.47 Bohr mag/cell

     iteration # 15     ecut=    70.00 Ry     beta= 0.70
     Davidson diagonalization with overlap
     ethr =  4.99E-08,  avg # of iterations =  3.0

     negative rho (up, down):  3.397E-02 3.311E-03

     total cpu time spent up to now is     1684.2 secs

     total energy              =    -757.33170833 Ry
     Harris-Foulkes estimate   =    -757.33171011 Ry
     estimated scf accuracy    <       0.00010205 Ry

     total magnetization       =     1.00 Bohr mag/cell
     absolute magnetization    =     1.49 Bohr mag/cell

     iteration # 16     ecut=    70.00 Ry     beta= 0.70
     Davidson diagonalization with overlap
     ethr =  4.84E-08,  avg # of iterations =  1.0

     negative rho (up, down):  3.400E-02 2.544E-03

     total cpu time spent up to now is     1776.0 secs

     total energy              =    -757.33171377 Ry
     Harris-Foulkes estimate   =    -757.33171168 Ry
     estimated scf accuracy    <       0.00006839 Ry

     total magnetization       =     1.00 Bohr mag/cell
     absolute magnetization    =     1.49 Bohr mag/cell

     iteration # 17     ecut=    70.00 Ry     beta= 0.70
     Davidson diagonalization with overlap
     ethr =  3.24E-08,  avg # of iterations =  1.0

     negative rho (up, down):  3.408E-02 3.424E-03

     total cpu time spent up to now is     1867.9 secs

     total energy              =    -757.33171075 Ry
     Harris-Foulkes estimate   =    -757.33171585 Ry
     estimated scf accuracy    <       0.00007608 Ry

     total magnetization       =     1.00 Bohr mag/cell
     absolute magnetization    =     1.50 Bohr mag/cell

     iteration # 18     ecut=    70.00 Ry     beta= 0.70
     Davidson diagonalization with overlap
     ethr =  3.24E-08,  avg # of iterations =  1.0

     negative rho (up, down):  3.406E-02 2.003E-03

     total cpu time spent up to now is     1960.0 secs

     total energy              =    -757.33171357 Ry
     Harris-Foulkes estimate   =    -757.33171220 Ry
     estimated scf accuracy    <       0.00005061 Ry

     total magnetization       =     1.00 Bohr mag/cell
     absolute magnetization    =     1.51 Bohr mag/cell

     iteration # 19     ecut=    70.00 Ry     beta= 0.70
     Davidson diagonalization with overlap
     ethr =  2.40E-08,  avg # of iterations =  5.5

     negative rho (up, down):  3.417E-02 3.750E-03

     total cpu time spent up to now is     2057.3 secs

     total energy              =    -757.33170320 Ry
     Harris-Foulkes estimate   =    -757.33171954 Ry
     estimated scf accuracy    <       0.00001595 Ry

     total magnetization       =     1.00 Bohr mag/cell
     absolute magnetization    =     1.53 Bohr mag/cell

     iteration # 20     ecut=    70.00 Ry     beta= 0.70
     Davidson diagonalization with overlap
     ethr =  7.56E-09,  avg # of iterations =  3.0

     negative rho (up, down):  3.404E-02 2.016E-03

     total cpu time spent up to now is     2173.0 secs

     total energy              =    -757.33172256 Ry
     Harris-Foulkes estimate   =    -757.33170987 Ry
     estimated scf accuracy    <       0.00000919 Ry

     total magnetization       =     1.00 Bohr mag/cell
     absolute magnetization    =     1.54 Bohr mag/cell

     iteration # 21     ecut=    70.00 Ry     beta= 0.70
     Davidson diagonalization with overlap
     ethr =  4.35E-09,  avg # of iterations =  3.0

     negative rho (up, down):  3.403E-02 1.998E-03

     total cpu time spent up to now is     2272.8 secs

     total energy              =    -757.33172484 Ry
     Harris-Foulkes estimate   =    -757.33172538 Ry
     estimated scf accuracy    <       0.00003460 Ry

     total magnetization       =     1.00 Bohr mag/cell
     absolute magnetization    =     1.54 Bohr mag/cell

     iteration # 22     ecut=    70.00 Ry     beta= 0.70
     Davidson diagonalization with overlap
     ethr =  4.35E-09,  avg # of iterations =  2.0

     negative rho (up, down):  3.404E-02 2.091E-03

     total cpu time spent up to now is     2367.3 secs

     total energy              =    -757.33172472 Ry
     Harris-Foulkes estimate   =    -757.33172596 Ry
     estimated scf accuracy    <       0.00002182 Ry

     total magnetization       =     1.00 Bohr mag/cell
     absolute magnetization    =     1.55 Bohr mag/cell

     iteration # 23     ecut=    70.00 Ry     beta= 0.70
     Davidson diagonalization with overlap
     ethr =  4.35E-09,  avg # of iterations =  2.0

     negative rho (up, down):  3.404E-02 2.062E-03

     total cpu time spent up to now is     2459.4 secs

     total energy              =    -757.33172492 Ry
     Harris-Foulkes estimate   =    -757.33172517 Ry
     estimated scf accuracy    <       0.00001635 Ry

     total magnetization       =     1.00 Bohr mag/cell
     absolute magnetization    =     1.55 Bohr mag/cell

     iteration # 24     ecut=    70.00 Ry     beta= 0.70
     Davidson diagonalization with overlap
     ethr =  4.35E-09,  avg # of iterations =  1.5

     negative rho (up, down):  3.404E-02 2.043E-03

     total cpu time spent up to now is     2552.3 secs

     total energy              =    -757.33172588 Ry
     Harris-Foulkes estimate   =    -757.33172552 Ry
     estimated scf accuracy    <       0.00000636 Ry

     total magnetization       =     1.00 Bohr mag/cell
     absolute magnetization    =     1.55 Bohr mag/cell

     iteration # 25     ecut=    70.00 Ry     beta= 0.70
     Davidson diagonalization with overlap
     ethr =  3.01E-09,  avg # of iterations =  1.5

     negative rho (up, down):  3.402E-02 2.011E-03

     total cpu time spent up to now is     2644.6 secs

     total energy              =    -757.33172625 Ry
     Harris-Foulkes estimate   =    -757.33172611 Ry
     estimated scf accuracy    <       0.00000452 Ry

     total magnetization       =     1.00 Bohr mag/cell
     absolute magnetization    =     1.55 Bohr mag/cell

     iteration # 26     ecut=    70.00 Ry     beta= 0.70
     Davidson diagonalization with overlap
     ethr =  2.14E-09,  avg # of iterations =  3.0

     negative rho (up, down):  3.402E-02 2.051E-03

     total cpu time spent up to now is     2743.8 secs

     total energy              =    -757.33172699 Ry
     Harris-Foulkes estimate   =    -757.33172712 Ry
     estimated scf accuracy    <       0.00000250 Ry

     total magnetization       =     1.00 Bohr mag/cell
     absolute magnetization    =     1.55 Bohr mag/cell

     iteration # 27     ecut=    70.00 Ry     beta= 0.70
     Davidson diagonalization with overlap
     ethr =  1.18E-09,  avg # of iterations =  1.0

     negative rho (up, down):  3.401E-02 2.208E-03

     total cpu time spent up to now is     2836.0 secs

     total energy              =    -757.33172584 Ry
     Harris-Foulkes estimate   =    -757.33172720 Ry
     estimated scf accuracy    <       0.00000236 Ry

     total magnetization       =     1.00 Bohr mag/cell
     absolute magnetization    =     1.54 Bohr mag/cell

     iteration # 28     ecut=    70.00 Ry     beta= 0.70
     Davidson diagonalization with overlap
     ethr =  1.12E-09,  avg # of iterations =  3.0

     negative rho (up, down):  3.401E-02 2.004E-03

     Magnetic moment per site:
     atom:    1    charge:    0.2146    magn:   -0.0000    constr:    0.0000
     atom:    2    charge:    0.2077    magn:    0.0000    constr:    0.0000
     atom:    3    charge:    1.7174    magn:   -0.0073    constr:    0.0000
     atom:    4    charge:    1.7160    magn:    0.0107    constr:    0.0000
     atom:    5    charge:    1.7181    magn:   -0.0043    constr:    0.0000
     atom:    6    charge:    1.7141    magn:    0.0026    constr:    0.0000
     atom:    7    charge:    1.7184    magn:   -0.0039    constr:    0.0000
     atom:    8    charge:    1.7154    magn:    0.0076    constr:    0.0000
     atom:    9    charge:    1.7180    magn:   -0.0062    constr:    0.0000
     atom:   10    charge:    1.7131    magn:    0.0236    constr:    0.0000
     atom:   11    charge:    1.7187    magn:   -0.0090    constr:    0.0000
     atom:   12    charge:    1.7153    magn:    0.0359    constr:    0.0000
     atom:   13    charge:    1.7185    magn:   -0.0090    constr:    0.0000
     atom:   14    charge:    1.7137    magn:    0.0177    constr:    0.0000
     atom:   15    charge:    1.7170    magn:   -0.0072    constr:    0.0000
     atom:   16    charge:    1.7105    magn:    0.0259    constr:    0.0000
     atom:   17    charge:    1.7270    magn:   -0.0047    constr:    0.0000
     atom:   18    charge:    1.7106    magn:    0.0286    constr:    0.0000
     atom:   19    charge:    1.7169    magn:   -0.0079    constr:    0.0000
     atom:   20    charge:    1.7150    magn:    0.0267    constr:    0.0000
     atom:   21    charge:    1.7187    magn:   -0.0089    constr:    0.0000
     atom:   22    charge:    1.7149    magn:    0.0333    constr:    0.0000
     atom:   23    charge:    1.7176    magn:   -0.0070    constr:    0.0000
     atom:   24    charge:    1.7159    magn:    0.0101    constr:    0.0000
     atom:   25    charge:    1.7171    magn:   -0.0069    constr:    0.0000
     atom:   26    charge:    1.7103    magn:    0.0235    constr:    0.0000
     atom:   27    charge:    1.9149    magn:   -0.0016    constr:    0.0000
     atom:   28    charge:    7.8610    magn:    0.1013    constr:    0.0000
     atom:   29    charge:    1.9145    magn:    0.0004    constr:    0.0000
     atom:   30    charge:    1.7121    magn:    0.0377    constr:    0.0000
     atom:   31    charge:    1.7167    magn:   -0.0091    constr:    0.0000
     atom:   32    charge:    1.7156    magn:    0.0098    constr:    0.0000
     atom:   33    charge:    1.7183    magn:   -0.0044    constr:    0.0000
     atom:   34    charge:    1.7139    magn:    0.0072    constr:    0.0000
     atom:   35    charge:    1.7182    magn:   -0.0042    constr:    0.0000
     atom:   36    charge:    1.7141    magn:    0.0026    constr:    0.0000
     atom:   37    charge:    1.7271    magn:   -0.0045    constr:    0.0000
     atom:   38    charge:    1.7110    magn:    0.0256    constr:    0.0000
     atom:   39    charge:    1.9153    magn:   -0.0003    constr:    0.0000
     atom:   40    charge:    1.7124    magn:    0.0371    constr:    0.0000
     atom:   41    charge:    1.7264    magn:   -0.0065    constr:    0.0000
     atom:   42    charge:    1.7141    magn:    0.0028    constr:    0.0000
     atom:   43    charge:    1.7182    magn:   -0.0045    constr:    0.0000
     atom:   44    charge:    1.7140    magn:    0.0077    constr:    0.0000
     atom:   45    charge:    1.7245    magn:   -0.0031    constr:    0.0000
     atom:   46    charge:    1.7136    magn:    0.0056    constr:    0.0000
     atom:   47    charge:    1.7184    magn:   -0.0039    constr:    0.0000
     atom:   48    charge:    1.7155    magn:    0.0076    constr:    0.0000
     atom:   49    charge:    1.7169    magn:   -0.0074    constr:    0.0000
     atom:   50    charge:    1.7148    magn:    0.0250    constr:    0.0000
     atom:   51    charge:    1.7166    magn:   -0.0089    constr:    0.0000
     atom:   52    charge:    1.7158    magn:    0.0105    constr:    0.0000

     total cpu time spent up to now is     2956.7 secs

     End of self-consistent calculation

 ------ SPIN UP ------------


          k = 0.0000 0.0000 0.0000 ( 87777 PWs)   bands (ev):

   -62.8304 -37.9266 -37.9071 -36.5968 -19.6320 -18.7986 -18.7787 -18.7200
   -18.6780 -18.6678 -18.2372 -16.9360 -16.9348 -16.9282 -16.8004 -16.7920
   -16.5143 -16.0800 -16.0790 -15.9861 -15.8313 -15.8304 -15.0807 -13.8920
   -13.8908 -13.8803 -13.8590 -13.8581 -13.1312 -12.9155 -12.9130 -12.8962
   -12.5036 -12.5030 -12.1108 -11.6439 -11.6409 -11.5176 -11.1372 -11.1363
   -10.1510  -9.3361  -9.3328  -9.2535  -9.1801  -9.1783  -9.0898  -9.0658
    -9.0638  -9.0492  -8.4631  -8.4610  -7.9156  -7.8919  -7.8855  -7.8523
    -7.6736  -7.5881  -7.2509  -7.2483  -6.9622  -6.9057  -6.8766  -6.6977
    -6.6962  -6.6838  -6.5900  -6.5870  -6.5411  -6.4358  -6.4272  -6.3905
    -6.3820  -6.3798  -6.3305  -6.2017  -5.2593  -5.2537  -5.1568  -5.1232
    -4.9428  -4.9420  -4.8310  -4.7428  -4.6170  -4.6059  -4.6042  -4.2272
    -3.9842  -3.9802  -3.7574  -3.7549  -3.6560  -3.6202  -3.4961  -3.4950
    -2.8685  -2.2619  -2.2557  -2.2202  -2.2090  -1.7444  -1.6807  -1.6769
    -0.5235  -0.2422  -0.2373   1.0206   1.0521   1.0804   1.0857   1.7933
     2.0504   2.0542   2.5014   2.8952   2.9006   2.9777   3.4865   3.5126
     3.5337   3.7390   3.7516   3.7876   3.9019   4.0031   4.0053

     occupation numbers 
     1.0000   1.0000   1.0000   1.0000   1.0000   1.0000   1.0000   1.0000
     1.0000   1.0000   1.0000   1.0000   1.0000   1.0000   1.0000   1.0000
     1.0000   1.0000   1.0000   1.0000   1.0000   1.0000   1.0000   1.0000
     1.0000   1.0000   1.0000   1.0000   1.0000   1.0000   1.0000   1.0000
     1.0000   1.0000   1.0000   1.0000   1.0000   1.0000   1.0000   1.0000
     1.0000   1.0000   1.0000   1.0000   1.0000   1.0000   1.0000   1.0000
     1.0000   1.0000   1.0000   1.0000   1.0000   1.0000   1.0000   1.0000
     1.0000   1.0000   1.0000   1.0000   1.0000   1.0000   1.0000   1.0000
     1.0000   1.0000   1.0000   1.0000   1.0000   1.0000   1.0000   1.0000
     1.0000   1.0000   1.0000   1.0000   1.0000   1.0000   1.0000   1.0000
     1.0000   1.0000   1.0000   1.0000   1.0000   1.0000   1.0000   1.0000
     1.0000   1.0000   1.0000   1.0000   1.0000   1.0000   1.0000   1.0000
     1.0000   1.0000   1.0000   1.0000   1.0000   1.0000   1.0000   1.0000
     1.0000   0.6311   0.3689   0.0000   0.0000   0.0000   0.0000   0.0000
     0.0000   0.0000   0.0000   0.0000   0.0000   0.0000   0.0000   0.0000
     0.0000   0.0000   0.0000   0.0000   0.0000   0.0000   0.0000

 ------ SPIN DOWN ----------


          k = 0.0000 0.0000 0.0000 ( 87777 PWs)   bands (ev):

   -62.6350 -37.7881 -37.7230 -36.3294 -19.6103 -18.7798 -18.7544 -18.6999
   -18.6622 -18.6504 -18.2050 -16.9205 -16.9173 -16.9075 -16.7739 -16.7620
   -16.5000 -16.0535 -16.0512 -15.9701 -15.8101 -15.8093 -15.0659 -13.8610
   -13.8580 -13.8536 -13.8498 -13.8316 -13.1345 -12.9055 -12.9017 -12.8807
   -12.4960 -12.4943 -12.0924 -11.6252 -11.6240 -11.5044 -11.1253 -11.1232
   -10.1364  -9.3202  -9.3148  -9.2406  -9.1637  -9.1601  -9.0817  -9.0509
    -9.0505  -9.0395  -8.4564  -8.4542  -7.8897  -7.8799  -7.8671  -7.8369
    -7.6651  -7.5610  -7.2417  -7.2396  -6.8895  -6.8733  -6.8137  -6.6661
    -6.6585  -6.6407  -6.5785  -6.5760  -6.5315  -6.4267  -6.4173  -6.3854
    -6.3747  -6.3729  -6.3223  -6.1260  -5.2515  -5.2449  -5.0830  -5.0286
    -4.9331  -4.9320  -4.8252  -4.7368  -4.5766  -4.5580  -4.5488  -4.1898
    -3.9387  -3.9235  -3.6830  -3.6813  -3.6091  -3.5905  -3.4899  -3.4880
    -2.8341  -2.1968  -2.1862  -2.1578  -2.1404  -1.6673  -1.6624  -1.6468
    -0.5191  -0.0414   0.0155   1.0920   1.1037   1.1065   1.1313   1.8635
     2.1155   2.1291   2.5060   2.9660   2.9711   3.0197   3.4933   3.5216
     3.5571   3.7414   3.7536   3.7942   3.9324   4.0692   4.0801

     occupation numbers 
     1.0000   1.0000   1.0000   1.0000   1.0000   1.0000   1.0000   1.0000
     1.0000   1.0000   1.0000   1.0000   1.0000   1.0000   1.0000   1.0000
     1.0000   1.0000   1.0000   1.0000   1.0000   1.0000   1.0000   1.0000
     1.0000   1.0000   1.0000   1.0000   1.0000   1.0000   1.0000   1.0000
     1.0000   1.0000   1.0000   1.0000   1.0000   1.0000   1.0000   1.0000
     1.0000   1.0000   1.0000   1.0000   1.0000   1.0000   1.0000   1.0000
     1.0000   1.0000   1.0000   1.0000   1.0000   1.0000   1.0000   1.0000
     1.0000   1.0000   1.0000   1.0000   1.0000   1.0000   1.0000   1.0000
     1.0000   1.0000   1.0000   1.0000   1.0000   1.0000   1.0000   1.0000
     1.0000   1.0000   1.0000   1.0000   1.0000   1.0000   1.0000   1.0000
     1.0000   1.0000   1.0000   1.0000   1.0000   1.0000   1.0000   1.0000
     1.0000   1.0000   1.0000   1.0000   1.0000   1.0000   1.0000   1.0000
     1.0000   1.0000   1.0000   1.0000   1.0000   1.0000   1.0000   1.0000
     1.0000   0.0000   0.0000   0.0000   0.0000   0.0000   0.0000   0.0000
     0.0000   0.0000   0.0000   0.0000   0.0000   0.0000   0.0000   0.0000
     0.0000   0.0000   0.0000   0.0000   0.0000   0.0000   0.0000

     the Fermi energy is    -0.2379 ev

!    total energy              =    -757.33172700 Ry
     Harris-Foulkes estimate   =    -757.33172753 Ry
     estimated scf accuracy    <       0.00000089 Ry

     The total energy is the sum of the following terms:

     one-electron contribution =   -2595.82442139 Ry
     hartree contribution      =    1344.74509150 Ry
     xc contribution           =    -252.68963685 Ry
     ewald contribution        =     746.43754440 Ry
     smearing contrib. (-TS)   =      -0.00030467 Ry

     total magnetization       =     1.00 Bohr mag/cell
     absolute magnetization    =     1.54 Bohr mag/cell

     convergence has been achieved in  28 iterations

     Writing output data file gr-12-baricentro.save/

     init_run     :     71.65s CPU     73.24s WALL (       1 calls)
     electrons    :   2827.46s CPU   2882.50s WALL (       1 calls)

     Called by init_run:
     wfcinit      :     42.15s CPU     42.45s WALL (       1 calls)
     wfcinit:atom :      0.04s CPU      0.07s WALL (       2 calls)
     wfcinit:wfcr :     41.76s CPU     41.98s WALL (       2 calls)
     potinit      :     12.39s CPU     12.89s WALL (       1 calls)
     hinit0       :      8.65s CPU      8.69s WALL (       1 calls)

     Called by electrons:
     c_bands      :   1818.15s CPU   1829.82s WALL (      28 calls)
     sum_band     :    584.87s CPU    603.36s WALL (      28 calls)
     v_of_rho     :    210.76s CPU    220.84s WALL (      29 calls)
     v_h          :      2.21s CPU      2.26s WALL (      29 calls)
     v_xc         :    208.55s CPU    218.58s WALL (      29 calls)
     newd         :    208.83s CPU    224.36s WALL (      29 calls)
     mix_rho      :     12.65s CPU     12.87s WALL (      28 calls)

     Called by c_bands:
     init_us_2    :      5.16s CPU      5.20s WALL (     114 calls)
     cegterg      :   1805.03s CPU   1816.63s WALL (      56 calls)

     Called by sum_band:
     sum_band:bec :      0.04s CPU      0.04s WALL (      56 calls)
     addusdens    :    359.41s CPU    376.13s WALL (      28 calls)

     Called by *egterg:
     h_psi        :    950.00s CPU    958.18s WALL (     235 calls)
     s_psi        :    317.87s CPU    318.08s WALL (     235 calls)
     g_psi        :      1.01s CPU      1.01s WALL (     177 calls)
     cdiaghg      :     15.99s CPU     16.00s WALL (     233 calls)
     cegterg:over :    224.42s CPU    224.56s WALL (     177 calls)
     cegterg:upda :    136.69s CPU    137.64s WALL (     177 calls)
     cegterg:last :     99.88s CPU     99.94s WALL (      57 calls)

     Called by h_psi:
     h_psi:pot    :    948.88s CPU    955.86s WALL (     235 calls)
     h_psi:calbec :    320.24s CPU    320.49s WALL (     235 calls)
     vloc_psi     :    310.94s CPU    317.52s WALL (     235 calls)
     add_vuspsi   :    317.70s CPU    317.84s WALL (     235 calls)

     General routines
     calbec       :    456.13s CPU    456.46s WALL (     291 calls)
     fft          :    123.28s CPU    127.14s WALL (    2169 calls)
     ffts         :      2.17s CPU      2.26s WALL (     114 calls)
     fftw         :    330.40s CPU    337.72s WALL (   40712 calls)
     interpolate  :      5.00s CPU      5.14s WALL (      58 calls)

     Parallel routines
     fft_scatt_xy :     81.37s CPU     82.67s WALL (   42995 calls)
     fft_scatt_yz :    155.95s CPU    163.95s WALL (   42995 calls)

     PWSCF        :  48m20.36s CPU  49m17.44s WALL


   This run was terminated on:   2:24:47  24Aug2022            

=------------------------------------------------------------------------------=
   JOB DONE.
=------------------------------------------------------------------------------=
