
     Program PWSCF v.6.4.1 starts on 24Aug2022 at  0:44:20 

     This program is part of the open-source Quantum ESPRESSO suite
     for quantum simulation of materials; please cite
         "P. Giannozzi et al., J. Phys.:Condens. Matter 21 395502 (2009);
         "P. Giannozzi et al., J. Phys.:Condens. Matter 29 465901 (2017);
          URL http://www.quantum-espresso.org", 
     in publications or presentations arising from this work. More details at
     http://www.quantum-espresso.org/quote

     Parallel version (MPI), running on     6 processors

     MPI processes distributed on     1 nodes
     R & G space division:  proc/nbgrp/npool/nimage =       6
     Reading input from distance-2.4.in

     Current dimensions of program PWSCF are:
     Max number of different atomic species (ntypx) = 10
     Max number of k-points (npk) =  40000
     Max angular momentum in pseudopotentials (lmaxx) =  3

     IMPORTANT: XC functional enforced from input :
     Exchange-correlation      = RVV10 ( 1  4 13  4 3 0)
     Any further DFT definition will be discarded
     Please, verify this is what you really want

               file H.pbe-rrkjus.UPF: wavefunction(s)  1S renormalized
               file V.pbe-spnl-rrkjus_psl.1.0.0.UPF: wavefunction(s)  3P 3D renormalized

     Subspace diagonalization in iterative solution of the eigenvalue problem:
     a serial algorithm will be used


     Parallelization info
     --------------------
     sticks:   dense  smooth     PW     G-vecs:    dense   smooth      PW
     Min        3051    1746    432               270999   117096   14629
     Max        3053    1747    437               271001   117099   14630
     Sum       18313   10477   2611              1626001   702581   87777



     bravais-lattice index     =            4
     lattice parameter (alat)  =      23.2937  a.u.
     unit-cell volume          =    8879.8548 (a.u.)^3
     number of atoms/cell      =           52
     number of atomic types    =            3
     number of electrons       =       211.00
     number of Kohn-Sham states=          127
     kinetic-energy cutoff     =      70.0000  Ry
     charge density cutoff     =     490.0000  Ry
     convergence threshold     =      1.0E-06
     mixing beta               =       0.7000
     number of iterations used =            8  plain     mixing
     Exchange-correlation      = RVV10 ( 1  4 13  4 3 0)

     celldm(1)=  23.293684  celldm(2)=   0.000000  celldm(3)=   0.811261
     celldm(4)=   0.000000  celldm(5)=   0.000000  celldm(6)=   0.000000

     crystal axes: (cart. coord. in units of alat)
               a(1) = (   1.000000   0.000000   0.000000 )  
               a(2) = (  -0.500000   0.866025   0.000000 )  
               a(3) = (   0.000000   0.000000   0.811261 )  

     reciprocal axes: (cart. coord. in units 2 pi/alat)
               b(1) = (  1.000000  0.577350 -0.000000 )  
               b(2) = (  0.000000  1.154701  0.000000 )  
               b(3) = (  0.000000 -0.000000  1.232649 )  


     PseudoPot. # 1 for H  read from file:
     /home/cristian/Escritorio/Proyecto_Grafeno/pseudopotenciales/H.pbe-rrkjus.UPF
     MD5 check sum: 7cc9d459525c9a0585f487a71c3c9563
     Pseudo is Ultrasoft, Zval =  1.0
     Generated by new atomic code, or converted to UPF format
     Using radial grid of 1061 points,  2 beta functions with: 
                l(1) =   0
                l(2) =   0
     Q(r) pseudized with 0 coefficients 


     PseudoPot. # 2 for C  read from file:
     /home/cristian/Escritorio/Proyecto_Grafeno/pseudopotenciales/C.pbe-n-rrkjus_psl.1.0.0.UPF
     MD5 check sum: 1fdd950c42eb37d8afe3dd2f8d12311e
     Pseudo is Ultrasoft + core correction, Zval =  4.0
     Generated using "atomic" code by A. Dal Corso v.6.3MaX
     Using radial grid of 1073 points,  4 beta functions with: 
                l(1) =   0
                l(2) =   0
                l(3) =   1
                l(4) =   1
     Q(r) pseudized with 0 coefficients 


     PseudoPot. # 3 for V  read from file:
     /home/cristian/Escritorio/Proyecto_Grafeno/pseudopotenciales/V.pbe-spnl-rrkjus_psl.1.0.0.UPF
     MD5 check sum: 79b3eb63147daf0b665d9f1bcc691206
     Pseudo is Ultrasoft + core correction, Zval = 13.0
     Generated using "atomic" code by A. Dal Corso v.6.2.2
     Using radial grid of 1181 points,  6 beta functions with: 
                l(1) =   0
                l(2) =   0
                l(3) =   1
                l(4) =   1
                l(5) =   2
                l(6) =   2
     Q(r) pseudized with 0 coefficients 


     vdW kernel table read from file rVV10_kernel_table
     MD5 check sum: b8e2538accc0c0b3206b45ba4daaba6c

     atomic species   valence    mass     pseudopotential
        H              1.00     1.00794     H ( 1.00)
        C              4.00    12.01070     C ( 1.00)
        V             13.00    50.94150     V ( 1.00)

     Starting magnetic structure 
     atomic species   magnetization
        H            0.500
        C            0.300
        V            0.800

     No symmetry found


                                    s                        frac. trans.

      isym =  1     identity                                     

 cryst.   s( 1) = (     1          0          0      )
                  (     0          1          0      )
                  (     0          0          1      )

 cart.    s( 1) = (  1.0000000  0.0000000  0.0000000 )
                  (  0.0000000  1.0000000  0.0000000 )
                  (  0.0000000  0.0000000  1.0000000 )


     point group C_1 (1)    
     there are  1 classes
     the character table:

       E    
A      1.00

     the symmetry operations in each class and the name of the first element:

     E        1
          identity                                               

   Cartesian axes

     site n.     atom                  positions (alat units)
         1           H   tau(   1) = (   0.2666667   0.4618802   0.1947027  )
         2           H   tau(   2) = (   0.2666667   0.4618802   0.2557154  )
         3           C   tau(   3) = (   0.0000000   0.0000000   0.0000000  )
         4           C   tau(   4) = (   0.0000000   0.1154701   0.0000000  )
         5           C   tau(   5) = (  -0.1000000   0.1732051   0.0000000  )
         6           C   tau(   6) = (  -0.1000000   0.2886751   0.0000000  )
         7           C   tau(   7) = (  -0.2000000   0.3464102   0.0000000  )
         8           C   tau(   8) = (  -0.2000000   0.4618802   0.0000000  )
         9           C   tau(   9) = (  -0.3000000   0.5196152   0.0000000  )
        10           C   tau(  10) = (  -0.3000000   0.6350853   0.0000000  )
        11           C   tau(  11) = (  -0.4000000   0.6928203   0.0000000  )
        12           C   tau(  12) = (  -0.4000000   0.8082904   0.0000000  )
        13           C   tau(  13) = (   0.2000000   0.0000000   0.0000000  )
        14           C   tau(  14) = (   0.2000000   0.1154701   0.0000000  )
        15           C   tau(  15) = (   0.1000000   0.1732051   0.0000000  )
        16           C   tau(  16) = (   0.1000000   0.2886751   0.0000000  )
        17           C   tau(  17) = (   0.0000000   0.3464102   0.0000000  )
        18           C   tau(  18) = (   0.0000000   0.4618802   0.0000000  )
        19           C   tau(  19) = (  -0.1000000   0.5196152   0.0000000  )
        20           C   tau(  20) = (  -0.1000000   0.6350853   0.0000000  )
        21           C   tau(  21) = (  -0.2000000   0.6928203   0.0000000  )
        22           C   tau(  22) = (  -0.2000000   0.8082904   0.0000000  )
        23           C   tau(  23) = (   0.4000000   0.0000000   0.0000000  )
        24           C   tau(  24) = (   0.4000000   0.1154701   0.0000000  )
        25           C   tau(  25) = (   0.3000000   0.1732051   0.0000000  )
        26           C   tau(  26) = (   0.3000000   0.2886751   0.0000000  )
        27           C   tau(  27) = (   0.2000000   0.3464102   0.0000000  )
        28           V   tau(  28) = (   0.2000000   0.4618802   0.0000000  )
        29           C   tau(  29) = (   0.1000000   0.5196152   0.0000000  )
        30           C   tau(  30) = (   0.1000000   0.6350853   0.0000000  )
        31           C   tau(  31) = (   0.0000000   0.6928203   0.0000000  )
        32           C   tau(  32) = (   0.0000000   0.8082904   0.0000000  )
        33           C   tau(  33) = (   0.6000000   0.0000000   0.0000000  )
        34           C   tau(  34) = (   0.6000000   0.1154701   0.0000000  )
        35           C   tau(  35) = (   0.5000000   0.1732051   0.0000000  )
        36           C   tau(  36) = (   0.5000000   0.2886751   0.0000000  )
        37           C   tau(  37) = (   0.4000000   0.3464102   0.0000000  )
        38           C   tau(  38) = (   0.4000000   0.4618802   0.0000000  )
        39           C   tau(  39) = (   0.3000000   0.5196152   0.0000000  )
        40           C   tau(  40) = (   0.3000000   0.6350853   0.0000000  )
        41           C   tau(  41) = (   0.2000000   0.6928203   0.0000000  )
        42           C   tau(  42) = (   0.2000000   0.8082904   0.0000000  )
        43           C   tau(  43) = (   0.8000000   0.0000000   0.0000000  )
        44           C   tau(  44) = (   0.8000000   0.1154701   0.0000000  )
        45           C   tau(  45) = (   0.7000000   0.1732051   0.0000000  )
        46           C   tau(  46) = (   0.7000000   0.2886751   0.0000000  )
        47           C   tau(  47) = (   0.6000000   0.3464102   0.0000000  )
        48           C   tau(  48) = (   0.6000000   0.4618802   0.0000000  )
        49           C   tau(  49) = (   0.5000000   0.5196152   0.0000000  )
        50           C   tau(  50) = (   0.5000000   0.6350853   0.0000000  )
        51           C   tau(  51) = (   0.4000000   0.6928203   0.0000000  )
        52           C   tau(  52) = (   0.4000000   0.8082904   0.0000000  )

   Crystallographic axes

     site n.     atom                  positions (cryst. coord.)
         1           H   tau(   1) = (  0.5333333  0.5333333  0.2400000  )
         2           H   tau(   2) = (  0.5333333  0.5333333  0.3152072  )
         3           C   tau(   3) = (  0.0000000  0.0000000  0.0000000  )
         4           C   tau(   4) = (  0.0666667  0.1333333  0.0000000  )
         5           C   tau(   5) = (  0.0000000  0.2000000  0.0000000  )
         6           C   tau(   6) = (  0.0666667  0.3333333  0.0000000  )
         7           C   tau(   7) = (  0.0000000  0.4000000  0.0000000  )
         8           C   tau(   8) = (  0.0666667  0.5333333  0.0000000  )
         9           C   tau(   9) = (  0.0000000  0.6000000  0.0000000  )
        10           C   tau(  10) = (  0.0666667  0.7333333  0.0000000  )
        11           C   tau(  11) = (  0.0000000  0.8000000  0.0000000  )
        12           C   tau(  12) = (  0.0666667  0.9333333  0.0000000  )
        13           C   tau(  13) = (  0.2000000  0.0000000  0.0000000  )
        14           C   tau(  14) = (  0.2666667  0.1333333  0.0000000  )
        15           C   tau(  15) = (  0.2000000  0.2000000  0.0000000  )
        16           C   tau(  16) = (  0.2666667  0.3333333  0.0000000  )
        17           C   tau(  17) = (  0.2000000  0.4000000  0.0000000  )
        18           C   tau(  18) = (  0.2666667  0.5333333  0.0000000  )
        19           C   tau(  19) = (  0.2000000  0.6000000  0.0000000  )
        20           C   tau(  20) = (  0.2666667  0.7333333  0.0000000  )
        21           C   tau(  21) = (  0.2000000  0.8000000  0.0000000  )
        22           C   tau(  22) = (  0.2666667  0.9333333  0.0000000  )
        23           C   tau(  23) = (  0.4000000  0.0000000  0.0000000  )
        24           C   tau(  24) = (  0.4666667  0.1333333  0.0000000  )
        25           C   tau(  25) = (  0.4000000  0.2000000  0.0000000  )
        26           C   tau(  26) = (  0.4666667  0.3333333  0.0000000  )
        27           C   tau(  27) = (  0.4000000  0.4000000  0.0000000  )
        28           V   tau(  28) = (  0.4666667  0.5333333  0.0000000  )
        29           C   tau(  29) = (  0.4000000  0.6000000  0.0000000  )
        30           C   tau(  30) = (  0.4666667  0.7333333  0.0000000  )
        31           C   tau(  31) = (  0.4000000  0.8000000  0.0000000  )
        32           C   tau(  32) = (  0.4666667  0.9333333  0.0000000  )
        33           C   tau(  33) = (  0.6000000  0.0000000  0.0000000  )
        34           C   tau(  34) = (  0.6666667  0.1333333  0.0000000  )
        35           C   tau(  35) = (  0.6000000  0.2000000  0.0000000  )
        36           C   tau(  36) = (  0.6666667  0.3333333  0.0000000  )
        37           C   tau(  37) = (  0.6000000  0.4000000  0.0000000  )
        38           C   tau(  38) = (  0.6666667  0.5333333  0.0000000  )
        39           C   tau(  39) = (  0.6000000  0.6000000  0.0000000  )
        40           C   tau(  40) = (  0.6666667  0.7333333  0.0000000  )
        41           C   tau(  41) = (  0.6000000  0.8000000  0.0000000  )
        42           C   tau(  42) = (  0.6666667  0.9333333  0.0000000  )
        43           C   tau(  43) = (  0.8000000  0.0000000  0.0000000  )
        44           C   tau(  44) = (  0.8666667  0.1333333  0.0000000  )
        45           C   tau(  45) = (  0.8000000  0.2000000  0.0000000  )
        46           C   tau(  46) = (  0.8666667  0.3333333  0.0000000  )
        47           C   tau(  47) = (  0.8000000  0.4000000  0.0000000  )
        48           C   tau(  48) = (  0.8666667  0.5333333  0.0000000  )
        49           C   tau(  49) = (  0.8000000  0.6000000  0.0000000  )
        50           C   tau(  50) = (  0.8666667  0.7333333  0.0000000  )
        51           C   tau(  51) = (  0.8000000  0.8000000  0.0000000  )
        52           C   tau(  52) = (  0.8666667  0.9333333  0.0000000  )

     number of k points=     1  Marzari-Vanderbilt smearing, width (Ry)=  0.0010
                       cart. coord. in units 2pi/alat
        k(    1) = (   0.0000000   0.0000000   0.0000000), wk =   1.0000000

                       cryst. coord.
        k(    1) = (   0.0000000   0.0000000   0.0000000), wk =   1.0000000

     Dense  grid:  1626001 G-vectors     FFT dimensions: ( 180, 180, 135)

     Smooth grid:   702581 G-vectors     FFT dimensions: ( 125, 125, 108)

     Dynamical RAM for                 wfc:      28.36 MB

     Dynamical RAM for     wfc (w. buffer):      85.09 MB

     Dynamical RAM for           str. fact:      12.41 MB

     Dynamical RAM for           local pot:       0.00 MB

     Dynamical RAM for          nlocal pot:      92.46 MB

     Dynamical RAM for                qrad:      19.73 MB

     Dynamical RAM for          rho,v,vnew:      58.92 MB

     Dynamical RAM for               rhoin:      19.64 MB

     Dynamical RAM for            rho*nmix:     132.32 MB

     Dynamical RAM for           G-vectors:      16.40 MB

     Dynamical RAM for          h,s,v(r/c):      11.81 MB

     Dynamical RAM for          <psi|beta>:       0.80 MB

     Dynamical RAM for                 psi:     113.46 MB

     Dynamical RAM for                hpsi:     113.46 MB

     Dynamical RAM for                spsi:     113.46 MB

     Dynamical RAM for      wfcinit/wfcrot:      93.90 MB

     Dynamical RAM for           addusdens:     975.89 MB

     Estimated static dynamical RAM per process >     487.63 MB

     Estimated max dynamical RAM per process >       1.43 GB

     Estimated total dynamical RAM >       8.58 GB
     Generating pointlists ...
     new r_m :   0.0252 (alat units)  0.5862 (a.u.) for type    1
     new r_m :   0.0476 (alat units)  1.1095 (a.u.) for type    2
     new r_m :   0.0476 (alat units)  1.1095 (a.u.) for type    3

     Check: negative core charge=   -0.000002

     Initial potential from superposition of free atoms

     starting charge  210.80465, renormalised to  211.00000

     negative rho (up, down):  1.220E-04 1.620E-02


---------------------------------------------------------------------------------
Carrying out rVV10 run using the following parameters:
Nqs =      20    Nr_points =    1024   r_max =   100.000
b_value =  6.30000    beta =  0.00901
     q_mesh =  0.00010000  0.00030000  0.00058939  0.00100810
               0.00161396  0.00249058  0.00375900  0.00559430
               0.00824984  0.01209221  0.01765183  0.02569619
               0.03733578  0.05417739  0.07854596  0.11380545
               0.16482331  0.23864234  0.34545298  0.50000000

Gradients computed in Reciprocal space

---------------------------------------------------------------------------------


     Starting wfcs are  208 randomized atomic wfcs

     total cpu time spent up to now is       75.5 secs

     Self-consistent Calculation

     iteration #  1     ecut=    70.00 Ry     beta= 0.70
     Davidson diagonalization with overlap
     ethr =  1.00E-02,  avg # of iterations =  5.0

     negative rho (up, down):  2.823E-04 1.306E-02

     total cpu time spent up to now is      204.8 secs

     total energy              =    -753.00066216 Ry
     Harris-Foulkes estimate   =    -756.97766750 Ry
     estimated scf accuracy    <      11.83972215 Ry

     total magnetization       =     5.00 Bohr mag/cell
     absolute magnetization    =     6.06 Bohr mag/cell

     iteration #  2     ecut=    70.00 Ry     beta= 0.70
     Davidson diagonalization with overlap
     ethr =  5.61E-03,  avg # of iterations =  7.0

     negative rho (up, down):  4.367E-03 1.717E-01

     total cpu time spent up to now is      325.1 secs

     total energy              =    -746.58131844 Ry
     Harris-Foulkes estimate   =    -767.76918742 Ry
     estimated scf accuracy    <      73.02013781 Ry

     total magnetization       =     3.00 Bohr mag/cell
     absolute magnetization    =     3.36 Bohr mag/cell

     iteration #  3     ecut=    70.00 Ry     beta= 0.70
     Davidson diagonalization with overlap
     ethr =  5.61E-03,  avg # of iterations =  5.0

     negative rho (up, down):  9.865E-04 2.529E-02

     total cpu time spent up to now is      495.6 secs

     total energy              =    -755.74023439 Ry
     Harris-Foulkes estimate   =    -758.13894543 Ry
     estimated scf accuracy    <      11.05724499 Ry

     total magnetization       =     5.00 Bohr mag/cell
     absolute magnetization    =     5.78 Bohr mag/cell

     iteration #  4     ecut=    70.00 Ry     beta= 0.70
     Davidson diagonalization with overlap
     ethr =  5.24E-03,  avg # of iterations =  3.5

     negative rho (up, down):  4.617E-02 2.017E-02

     total cpu time spent up to now is      589.5 secs

     total energy              =    -757.05032237 Ry
     Harris-Foulkes estimate   =    -757.49709412 Ry
     estimated scf accuracy    <       1.32467346 Ry

     total magnetization       =     1.00 Bohr mag/cell
     absolute magnetization    =     1.74 Bohr mag/cell

     iteration #  5     ecut=    70.00 Ry     beta= 0.70
     Davidson diagonalization with overlap
     ethr =  6.28E-04,  avg # of iterations =  6.5

     negative rho (up, down):  5.375E-02 1.697E-02

     total cpu time spent up to now is      701.6 secs

     total energy              =    -757.21411951 Ry
     Harris-Foulkes estimate   =    -757.32865981 Ry
     estimated scf accuracy    <       0.36804954 Ry

     total magnetization       =     1.00 Bohr mag/cell
     absolute magnetization    =     1.53 Bohr mag/cell

     iteration #  6     ecut=    70.00 Ry     beta= 0.70
     Davidson diagonalization with overlap
     ethr =  1.74E-04,  avg # of iterations =  4.0

     negative rho (up, down):  2.894E-02 1.854E-02

     total cpu time spent up to now is      806.5 secs

     total energy              =    -757.29347712 Ry
     Harris-Foulkes estimate   =    -757.32118960 Ry
     estimated scf accuracy    <       0.20021152 Ry

     total magnetization       =     1.00 Bohr mag/cell
     absolute magnetization    =     1.45 Bohr mag/cell

     iteration #  7     ecut=    70.00 Ry     beta= 0.70
     Davidson diagonalization with overlap
     ethr =  9.49E-05,  avg # of iterations =  3.0

     negative rho (up, down):  3.216E-02 1.425E-02

     total cpu time spent up to now is      903.5 secs

     total energy              =    -757.31919861 Ry
     Harris-Foulkes estimate   =    -757.32619923 Ry
     estimated scf accuracy    <       0.03969681 Ry

     total magnetization       =     1.00 Bohr mag/cell
     absolute magnetization    =     1.38 Bohr mag/cell

     iteration #  8     ecut=    70.00 Ry     beta= 0.70
     Davidson diagonalization with overlap
     ethr =  1.88E-05,  avg # of iterations =  6.0

     negative rho (up, down):  3.099E-02 2.558E-02

     total cpu time spent up to now is     1020.6 secs

     total energy              =    -757.32612202 Ry
     Harris-Foulkes estimate   =    -757.33330429 Ry
     estimated scf accuracy    <       0.04129837 Ry

     total magnetization       =     1.00 Bohr mag/cell
     absolute magnetization    =     1.38 Bohr mag/cell

     iteration #  9     ecut=    70.00 Ry     beta= 0.70
     Davidson diagonalization with overlap
     ethr =  1.88E-05,  avg # of iterations =  3.0

     negative rho (up, down):  3.730E-02 1.900E-02

     total cpu time spent up to now is     1116.8 secs

     total energy              =    -757.32850381 Ry
     Harris-Foulkes estimate   =    -757.33220044 Ry
     estimated scf accuracy    <       0.01693353 Ry

     total magnetization       =     1.00 Bohr mag/cell
     absolute magnetization    =     1.40 Bohr mag/cell

     iteration # 10     ecut=    70.00 Ry     beta= 0.70
     Davidson diagonalization with overlap
     ethr =  8.03E-06,  avg # of iterations =  3.0

     negative rho (up, down):  3.557E-02 1.701E-02

     total cpu time spent up to now is     1213.2 secs

     total energy              =    -757.33064032 Ry
     Harris-Foulkes estimate   =    -757.33150753 Ry
     estimated scf accuracy    <       0.01809959 Ry

     total magnetization       =     1.00 Bohr mag/cell
     absolute magnetization    =     1.42 Bohr mag/cell

     iteration # 11     ecut=    70.00 Ry     beta= 0.70
     Davidson diagonalization with overlap
     ethr =  8.03E-06,  avg # of iterations =  1.5

     negative rho (up, down):  3.415E-02 2.030E-02

     total cpu time spent up to now is     1305.4 secs

     total energy              =    -757.33219845 Ry
     Harris-Foulkes estimate   =    -757.33174576 Ry
     estimated scf accuracy    <       0.00236080 Ry

     total magnetization       =     1.00 Bohr mag/cell
     absolute magnetization    =     1.42 Bohr mag/cell

     iteration # 12     ecut=    70.00 Ry     beta= 0.70
     Davidson diagonalization with overlap
     ethr =  1.12E-06,  avg # of iterations = 12.0

     negative rho (up, down):  3.329E-02 5.792E-03

     total cpu time spent up to now is     1409.2 secs

     total energy              =    -757.33330726 Ry
     Harris-Foulkes estimate   =    -757.33246899 Ry
     estimated scf accuracy    <       0.00044175 Ry

     total magnetization       =     1.00 Bohr mag/cell
     absolute magnetization    =     1.44 Bohr mag/cell

     iteration # 13     ecut=    70.00 Ry     beta= 0.70
     Davidson diagonalization with overlap
     ethr =  2.09E-07,  avg # of iterations =  3.0

     negative rho (up, down):  3.368E-02 2.643E-03

     total cpu time spent up to now is     1505.0 secs

     total energy              =    -757.33339754 Ry
     Harris-Foulkes estimate   =    -757.33338279 Ry
     estimated scf accuracy    <       0.00019506 Ry

     total magnetization       =     1.00 Bohr mag/cell
     absolute magnetization    =     1.46 Bohr mag/cell

     iteration # 14     ecut=    70.00 Ry     beta= 0.70
     Davidson diagonalization with overlap
     ethr =  9.24E-08,  avg # of iterations =  3.0

     negative rho (up, down):  3.394E-02 2.751E-03

     total cpu time spent up to now is     1600.8 secs

     total energy              =    -757.33342519 Ry
     Harris-Foulkes estimate   =    -757.33342893 Ry
     estimated scf accuracy    <       0.00006756 Ry

     total magnetization       =     1.00 Bohr mag/cell
     absolute magnetization    =     1.48 Bohr mag/cell

     iteration # 15     ecut=    70.00 Ry     beta= 0.70
     Davidson diagonalization with overlap
     ethr =  3.20E-08,  avg # of iterations =  2.5

     negative rho (up, down):  3.403E-02 3.145E-03

     total cpu time spent up to now is     1696.1 secs

     total energy              =    -757.33343239 Ry
     Harris-Foulkes estimate   =    -757.33343572 Ry
     estimated scf accuracy    <       0.00004865 Ry

     total magnetization       =     1.00 Bohr mag/cell
     absolute magnetization    =     1.49 Bohr mag/cell

     iteration # 16     ecut=    70.00 Ry     beta= 0.70
     Davidson diagonalization with overlap
     ethr =  2.31E-08,  avg # of iterations =  2.0

     negative rho (up, down):  3.407E-02 2.596E-03

     total cpu time spent up to now is     1790.1 secs

     total energy              =    -757.33343705 Ry
     Harris-Foulkes estimate   =    -757.33343573 Ry
     estimated scf accuracy    <       0.00002913 Ry

     total magnetization       =     1.00 Bohr mag/cell
     absolute magnetization    =     1.50 Bohr mag/cell

     iteration # 17     ecut=    70.00 Ry     beta= 0.70
     Davidson diagonalization with overlap
     ethr =  1.38E-08,  avg # of iterations =  1.0

     negative rho (up, down):  3.405E-02 1.944E-03

     total cpu time spent up to now is     1881.9 secs

     total energy              =    -757.33343932 Ry
     Harris-Foulkes estimate   =    -757.33343809 Ry
     estimated scf accuracy    <       0.00002502 Ry

     total magnetization       =     1.00 Bohr mag/cell
     absolute magnetization    =     1.51 Bohr mag/cell

     iteration # 18     ecut=    70.00 Ry     beta= 0.70
     Davidson diagonalization with overlap
     ethr =  1.19E-08,  avg # of iterations =  1.0

     negative rho (up, down):  3.409E-02 1.845E-03

     total cpu time spent up to now is     1973.4 secs

     total energy              =    -757.33343885 Ry
     Harris-Foulkes estimate   =    -757.33344024 Ry
     estimated scf accuracy    <       0.00002322 Ry

     total magnetization       =     1.00 Bohr mag/cell
     absolute magnetization    =     1.51 Bohr mag/cell

     iteration # 19     ecut=    70.00 Ry     beta= 0.70
     Davidson diagonalization with overlap
     ethr =  1.10E-08,  avg # of iterations =  1.0

     negative rho (up, down):  3.427E-02 4.121E-03

     total cpu time spent up to now is     2065.1 secs

     total energy              =    -757.33341096 Ry
     Harris-Foulkes estimate   =    -757.33344024 Ry
     estimated scf accuracy    <       0.00000650 Ry

     total magnetization       =     1.00 Bohr mag/cell
     absolute magnetization    =     1.52 Bohr mag/cell

     iteration # 20     ecut=    70.00 Ry     beta= 0.70
     Davidson diagonalization with overlap
     ethr =  3.08E-09,  avg # of iterations =  4.0

     negative rho (up, down):  3.407E-02 2.109E-03

     total cpu time spent up to now is     2193.6 secs

     total energy              =    -757.33343527 Ry
     Harris-Foulkes estimate   =    -757.33341849 Ry
     estimated scf accuracy    <       0.00005913 Ry

     total magnetization       =     1.00 Bohr mag/cell
     absolute magnetization    =     1.54 Bohr mag/cell

     iteration # 21     ecut=    70.00 Ry     beta= 0.70
     Davidson diagonalization with overlap
     ethr =  3.08E-09,  avg # of iterations =  3.0

     negative rho (up, down):  3.409E-02 1.918E-03

     total cpu time spent up to now is     2311.3 secs

     total energy              =    -757.33344194 Ry
     Harris-Foulkes estimate   =    -757.33344162 Ry
     estimated scf accuracy    <       0.00001992 Ry

     total magnetization       =     1.00 Bohr mag/cell
     absolute magnetization    =     1.53 Bohr mag/cell

     iteration # 22     ecut=    70.00 Ry     beta= 0.70
     Davidson diagonalization with overlap
     ethr =  3.08E-09,  avg # of iterations =  1.0

     negative rho (up, down):  3.409E-02 1.923E-03

     total cpu time spent up to now is     2402.9 secs

     total energy              =    -757.33344212 Ry
     Harris-Foulkes estimate   =    -757.33344233 Ry
     estimated scf accuracy    <       0.00001863 Ry

     total magnetization       =     1.00 Bohr mag/cell
     absolute magnetization    =     1.53 Bohr mag/cell

     iteration # 23     ecut=    70.00 Ry     beta= 0.70
     Davidson diagonalization with overlap
     ethr =  3.08E-09,  avg # of iterations =  1.0

     negative rho (up, down):  3.409E-02 1.927E-03

     total cpu time spent up to now is     2494.5 secs

     total energy              =    -757.33344225 Ry
     Harris-Foulkes estimate   =    -757.33344225 Ry
     estimated scf accuracy    <       0.00001428 Ry

     total magnetization       =     1.00 Bohr mag/cell
     absolute magnetization    =     1.53 Bohr mag/cell

     iteration # 24     ecut=    70.00 Ry     beta= 0.70
     Davidson diagonalization with overlap
     ethr =  3.08E-09,  avg # of iterations =  1.0

     negative rho (up, down):  3.409E-02 1.906E-03

     total cpu time spent up to now is     2586.3 secs

     total energy              =    -757.33344228 Ry
     Harris-Foulkes estimate   =    -757.33344235 Ry
     estimated scf accuracy    <       0.00001088 Ry

     total magnetization       =     1.00 Bohr mag/cell
     absolute magnetization    =     1.54 Bohr mag/cell

     iteration # 25     ecut=    70.00 Ry     beta= 0.70
     Davidson diagonalization with overlap
     ethr =  3.08E-09,  avg # of iterations =  1.0

     negative rho (up, down):  3.408E-02 1.974E-03

     total cpu time spent up to now is     2678.3 secs

     total energy              =    -757.33344254 Ry
     Harris-Foulkes estimate   =    -757.33344243 Ry
     estimated scf accuracy    <       0.00000858 Ry

     total magnetization       =     1.00 Bohr mag/cell
     absolute magnetization    =     1.54 Bohr mag/cell

     iteration # 26     ecut=    70.00 Ry     beta= 0.70
     Davidson diagonalization with overlap
     ethr =  3.08E-09,  avg # of iterations =  1.0

     negative rho (up, down):  3.408E-02 1.918E-03

     total cpu time spent up to now is     2770.2 secs

     total energy              =    -757.33344262 Ry
     Harris-Foulkes estimate   =    -757.33344261 Ry
     estimated scf accuracy    <       0.00000718 Ry

     total magnetization       =     1.00 Bohr mag/cell
     absolute magnetization    =     1.54 Bohr mag/cell

     iteration # 27     ecut=    70.00 Ry     beta= 0.70
     Davidson diagonalization with overlap
     ethr =  3.08E-09,  avg # of iterations =  1.5

     negative rho (up, down):  3.407E-02 1.901E-03

     total cpu time spent up to now is     2862.6 secs

     total energy              =    -757.33344246 Ry
     Harris-Foulkes estimate   =    -757.33344277 Ry
     estimated scf accuracy    <       0.00000473 Ry

     total magnetization       =     1.00 Bohr mag/cell
     absolute magnetization    =     1.54 Bohr mag/cell

     iteration # 28     ecut=    70.00 Ry     beta= 0.70
     Davidson diagonalization with overlap
     ethr =  2.24E-09,  avg # of iterations =  3.0

     negative rho (up, down):  3.407E-02 1.907E-03

     total cpu time spent up to now is     2959.1 secs

     total energy              =    -757.33344265 Ry
     Harris-Foulkes estimate   =    -757.33344305 Ry
     estimated scf accuracy    <       0.00000165 Ry

     total magnetization       =     1.00 Bohr mag/cell
     absolute magnetization    =     1.54 Bohr mag/cell

     iteration # 29     ecut=    70.00 Ry     beta= 0.70
     Davidson diagonalization with overlap
     ethr =  7.83E-10,  avg # of iterations =  3.0

     negative rho (up, down):  3.407E-02 1.877E-03

     Magnetic moment per site:
     atom:    1    charge:    0.2134    magn:   -0.0000    constr:    0.0000
     atom:    2    charge:    0.2086    magn:    0.0000    constr:    0.0000
     atom:    3    charge:    1.7175    magn:   -0.0071    constr:    0.0000
     atom:    4    charge:    1.7158    magn:    0.0101    constr:    0.0000
     atom:    5    charge:    1.7182    magn:   -0.0042    constr:    0.0000
     atom:    6    charge:    1.7141    magn:    0.0026    constr:    0.0000
     atom:    7    charge:    1.7184    magn:   -0.0040    constr:    0.0000
     atom:    8    charge:    1.7155    magn:    0.0084    constr:    0.0000
     atom:    9    charge:    1.7178    magn:   -0.0065    constr:    0.0000
     atom:   10    charge:    1.7139    magn:    0.0271    constr:    0.0000
     atom:   11    charge:    1.7186    magn:   -0.0089    constr:    0.0000
     atom:   12    charge:    1.7149    magn:    0.0338    constr:    0.0000
     atom:   13    charge:    1.7185    magn:   -0.0089    constr:    0.0000
     atom:   14    charge:    1.7142    magn:    0.0203    constr:    0.0000
     atom:   15    charge:    1.7170    magn:   -0.0075    constr:    0.0000
     atom:   16    charge:    1.7109    magn:    0.0281    constr:    0.0000
     atom:   17    charge:    1.7270    magn:   -0.0050    constr:    0.0000
     atom:   18    charge:    1.7109    magn:    0.0295    constr:    0.0000
     atom:   19    charge:    1.7169    magn:   -0.0079    constr:    0.0000
     atom:   20    charge:    1.7147    magn:    0.0252    constr:    0.0000
     atom:   21    charge:    1.7187    magn:   -0.0089    constr:    0.0000
     atom:   22    charge:    1.7146    magn:    0.0318    constr:    0.0000
     atom:   23    charge:    1.7176    magn:   -0.0069    constr:    0.0000
     atom:   24    charge:    1.7158    magn:    0.0097    constr:    0.0000
     atom:   25    charge:    1.7170    magn:   -0.0073    constr:    0.0000
     atom:   26    charge:    1.7107    magn:    0.0261    constr:    0.0000
     atom:   27    charge:    1.9149    magn:   -0.0010    constr:    0.0000
     atom:   28    charge:    7.8610    magn:    0.1017    constr:    0.0000
     atom:   29    charge:    1.9146    magn:    0.0001    constr:    0.0000
     atom:   30    charge:    1.7115    magn:    0.0340    constr:    0.0000
     atom:   31    charge:    1.7168    magn:   -0.0085    constr:    0.0000
     atom:   32    charge:    1.7157    magn:    0.0095    constr:    0.0000
     atom:   33    charge:    1.7183    magn:   -0.0043    constr:    0.0000
     atom:   34    charge:    1.7138    magn:    0.0070    constr:    0.0000
     atom:   35    charge:    1.7182    magn:   -0.0042    constr:    0.0000
     atom:   36    charge:    1.7141    magn:    0.0026    constr:    0.0000
     atom:   37    charge:    1.7270    magn:   -0.0048    constr:    0.0000
     atom:   38    charge:    1.7111    magn:    0.0272    constr:    0.0000
     atom:   39    charge:    1.9151    magn:   -0.0004    constr:    0.0000
     atom:   40    charge:    1.7117    magn:    0.0336    constr:    0.0000
     atom:   41    charge:    1.7267    magn:   -0.0059    constr:    0.0000
     atom:   42    charge:    1.7141    magn:    0.0027    constr:    0.0000
     atom:   43    charge:    1.7182    magn:   -0.0044    constr:    0.0000
     atom:   44    charge:    1.7139    magn:    0.0073    constr:    0.0000
     atom:   45    charge:    1.7245    magn:   -0.0031    constr:    0.0000
     atom:   46    charge:    1.7137    magn:    0.0062    constr:    0.0000
     atom:   47    charge:    1.7183    magn:   -0.0040    constr:    0.0000
     atom:   48    charge:    1.7156    magn:    0.0085    constr:    0.0000
     atom:   49    charge:    1.7169    magn:   -0.0076    constr:    0.0000
     atom:   50    charge:    1.7146    magn:    0.0239    constr:    0.0000
     atom:   51    charge:    1.7167    magn:   -0.0084    constr:    0.0000
     atom:   52    charge:    1.7157    magn:    0.0100    constr:    0.0000

     total cpu time spent up to now is     3068.6 secs

     End of self-consistent calculation

 ------ SPIN UP ------------


          k = 0.0000 0.0000 0.0000 ( 87777 PWs)   bands (ev):

   -62.8376 -37.9285 -37.9175 -36.6041 -19.6341 -18.7963 -18.7853 -18.7219
   -18.6782 -18.6726 -18.2400 -16.9371 -16.9361 -16.9327 -16.8009 -16.7963
   -16.5163 -16.0823 -16.0818 -15.9885 -15.8336 -15.8331 -15.0827 -13.8940
   -13.8911 -13.8847 -13.8616 -13.8609 -13.1335 -12.9173 -12.9159 -12.8987
   -12.5057 -12.5052 -12.1126 -11.6458 -11.6440 -11.5202 -11.1392 -11.1388
   -10.1516  -9.3378  -9.3361  -9.2564  -9.1819  -9.1810  -9.0920  -9.0678
    -9.0667  -9.0514  -8.4639  -8.4630  -7.8950  -7.8926  -7.8616  -7.8357
    -7.6762  -7.4167  -7.2519  -7.2513  -6.9627  -6.9120  -6.8851  -6.6995
    -6.6986  -6.6882  -6.5918  -6.5901  -6.5438  -6.4364  -6.4314  -6.3910
    -6.3855  -6.3836  -6.3330  -6.2320  -5.2606  -5.2575  -5.1578  -5.1394
    -4.9450  -4.9447  -4.8335  -4.7454  -4.6188  -4.6077  -4.6069  -4.2344
    -3.9859  -3.9835  -3.7591  -3.7577  -3.6583  -3.6256  -3.4983  -3.4977
    -2.8817  -2.2618  -2.2583  -2.2228  -2.2164  -1.7467  -1.6820  -1.6799
    -0.5334  -0.2420  -0.2394   0.9556   1.0500   1.0791   1.0829   1.7894
     2.0497   2.0516   2.5161   2.8943   2.8980   2.9755   3.4849   3.5105
     3.5293   3.7389   3.7509   3.7866   3.8998   4.0018   4.0025

     occupation numbers 
     1.0000   1.0000   1.0000   1.0000   1.0000   1.0000   1.0000   1.0000
     1.0000   1.0000   1.0000   1.0000   1.0000   1.0000   1.0000   1.0000
     1.0000   1.0000   1.0000   1.0000   1.0000   1.0000   1.0000   1.0000
     1.0000   1.0000   1.0000   1.0000   1.0000   1.0000   1.0000   1.0000
     1.0000   1.0000   1.0000   1.0000   1.0000   1.0000   1.0000   1.0000
     1.0000   1.0000   1.0000   1.0000   1.0000   1.0000   1.0000   1.0000
     1.0000   1.0000   1.0000   1.0000   1.0000   1.0000   1.0000   1.0000
     1.0000   1.0000   1.0000   1.0000   1.0000   1.0000   1.0000   1.0000
     1.0000   1.0000   1.0000   1.0000   1.0000   1.0000   1.0000   1.0000
     1.0000   1.0000   1.0000   1.0000   1.0000   1.0000   1.0000   1.0000
     1.0000   1.0000   1.0000   1.0000   1.0000   1.0000   1.0000   1.0000
     1.0000   1.0000   1.0000   1.0000   1.0000   1.0000   1.0000   1.0000
     1.0000   1.0000   1.0000   1.0000   1.0000   1.0000   1.0000   1.0000
     1.0000   0.5695   0.4305   0.0000   0.0000   0.0000   0.0000   0.0000
     0.0000   0.0000   0.0000   0.0000   0.0000   0.0000   0.0000   0.0000
     0.0000   0.0000   0.0000   0.0000   0.0000   0.0000   0.0000

 ------ SPIN DOWN ----------


          k = 0.0000 0.0000 0.0000 ( 87777 PWs)   bands (ev):

   -62.6413 -37.7791 -37.7432 -36.3357 -19.6123 -18.7762 -18.7622 -18.7017
   -18.6620 -18.6555 -18.2079 -16.9210 -16.9180 -16.9131 -16.7735 -16.7670
   -16.5021 -16.0556 -16.0542 -15.9727 -15.8125 -15.8120 -15.0679 -13.8603
   -13.8581 -13.8564 -13.8513 -13.8401 -13.1368 -12.9070 -12.9049 -12.8831
   -12.4978 -12.4968 -12.0942 -11.6274 -11.6267 -11.5070 -11.1271 -11.1259
   -10.1370  -9.3214  -9.3186  -9.2434  -9.1650  -9.1631  -9.0839  -9.0531
    -9.0531  -9.0421  -8.4574  -8.4560  -7.8836  -7.8809  -7.8533  -7.7872
    -7.6678  -7.3985  -7.2431  -7.2421  -6.8874  -6.8761  -6.8286  -6.6671
    -6.6620  -6.6440  -6.5803  -6.5790  -6.5342  -6.4271  -6.4217  -6.3855
    -6.3784  -6.3770  -6.3248  -6.1567  -5.2526  -5.2489  -5.0789  -5.0490
    -4.9353  -4.9347  -4.8277  -4.7394  -4.5774  -4.5583  -4.5537  -4.1969
    -3.9376  -3.9292  -3.6846  -3.6838  -3.6119  -3.5957  -3.4919  -3.4909
    -2.8478  -2.1957  -2.1896  -2.1589  -2.1491  -1.6669  -1.6648  -1.6511
    -0.5284  -0.0293   0.0019   1.0313   1.1004   1.1033   1.1279   1.8602
     2.1172   2.1247   2.5208   2.9654   2.9690   3.0170   3.4916   3.5189
     3.5539   3.7412   3.7528   3.7931   3.9299   4.0698   4.0758

     occupation numbers 
     1.0000   1.0000   1.0000   1.0000   1.0000   1.0000   1.0000   1.0000
     1.0000   1.0000   1.0000   1.0000   1.0000   1.0000   1.0000   1.0000
     1.0000   1.0000   1.0000   1.0000   1.0000   1.0000   1.0000   1.0000
     1.0000   1.0000   1.0000   1.0000   1.0000   1.0000   1.0000   1.0000
     1.0000   1.0000   1.0000   1.0000   1.0000   1.0000   1.0000   1.0000
     1.0000   1.0000   1.0000   1.0000   1.0000   1.0000   1.0000   1.0000
     1.0000   1.0000   1.0000   1.0000   1.0000   1.0000   1.0000   1.0000
     1.0000   1.0000   1.0000   1.0000   1.0000   1.0000   1.0000   1.0000
     1.0000   1.0000   1.0000   1.0000   1.0000   1.0000   1.0000   1.0000
     1.0000   1.0000   1.0000   1.0000   1.0000   1.0000   1.0000   1.0000
     1.0000   1.0000   1.0000   1.0000   1.0000   1.0000   1.0000   1.0000
     1.0000   1.0000   1.0000   1.0000   1.0000   1.0000   1.0000   1.0000
     1.0000   1.0000   1.0000   1.0000   1.0000   1.0000   1.0000   1.0000
     1.0000   0.0000   0.0000   0.0000   0.0000   0.0000   0.0000   0.0000
     0.0000   0.0000   0.0000   0.0000   0.0000   0.0000   0.0000   0.0000
     0.0000   0.0000   0.0000   0.0000   0.0000   0.0000   0.0000

     the Fermi energy is    -0.2388 ev

!    total energy              =    -757.33344313 Ry
     Harris-Foulkes estimate   =    -757.33344314 Ry
     estimated scf accuracy    <       0.00000010 Ry

     The total energy is the sum of the following terms:

     one-electron contribution =   -2591.19943742 Ry
     hartree contribution      =    1342.41906361 Ry
     xc contribution           =    -252.67978884 Ry
     ewald contribution        =     744.12704114 Ry
     smearing contrib. (-TS)   =      -0.00032162 Ry

     total magnetization       =     1.00 Bohr mag/cell
     absolute magnetization    =     1.54 Bohr mag/cell

     convergence has been achieved in  29 iterations

     Writing output data file gr-12-baricentro.save/

     init_run     :     72.77s CPU     74.34s WALL (       1 calls)
     electrons    :   2936.95s CPU   2993.28s WALL (       1 calls)

     Called by init_run:
     wfcinit      :     42.24s CPU     42.62s WALL (       1 calls)
     wfcinit:atom :      0.06s CPU      0.09s WALL (       2 calls)
     wfcinit:wfcr :     41.87s CPU     42.12s WALL (       2 calls)
     potinit      :     12.82s CPU     13.33s WALL (       1 calls)
     hinit0       :      9.28s CPU      9.31s WALL (       1 calls)

     Called by electrons:
     c_bands      :   1893.89s CPU   1905.14s WALL (      29 calls)
     sum_band     :    604.89s CPU    623.39s WALL (      29 calls)
     v_of_rho     :    218.02s CPU    228.55s WALL (      30 calls)
     v_h          :      2.25s CPU      2.34s WALL (      30 calls)
     v_xc         :    215.78s CPU    226.20s WALL (      30 calls)
     newd         :    214.70s CPU    231.34s WALL (      30 calls)
     mix_rho      :     13.14s CPU     13.37s WALL (      29 calls)

     Called by c_bands:
     init_us_2    :      5.33s CPU      5.40s WALL (     118 calls)
     cegterg      :   1879.78s CPU   1890.95s WALL (      58 calls)

     Called by sum_band:
     sum_band:bec :      0.05s CPU      0.05s WALL (      58 calls)
     addusdens    :    370.85s CPU    387.50s WALL (      29 calls)

     Called by *egterg:
     h_psi        :    985.27s CPU    993.42s WALL (     245 calls)
     s_psi        :    329.29s CPU    329.41s WALL (     245 calls)
     g_psi        :      1.05s CPU      1.05s WALL (     185 calls)
     cdiaghg      :     17.68s CPU     17.69s WALL (     243 calls)
     cegterg:over :    236.29s CPU    236.38s WALL (     185 calls)
     cegterg:upda :    143.89s CPU    144.76s WALL (     185 calls)
     cegterg:last :    103.42s CPU    103.44s WALL (      59 calls)

     Called by h_psi:
     h_psi:pot    :    984.25s CPU    991.08s WALL (     245 calls)
     h_psi:calbec :    332.48s CPU    332.63s WALL (     245 calls)
     vloc_psi     :    322.43s CPU    329.01s WALL (     245 calls)
     add_vuspsi   :    329.35s CPU    329.44s WALL (     245 calls)

     General routines
     calbec       :    472.98s CPU    473.20s WALL (     303 calls)
     fft          :    128.99s CPU    133.05s WALL (    2244 calls)
     ffts         :      2.22s CPU      2.31s WALL (     118 calls)
     fftw         :    342.58s CPU    350.02s WALL (   42308 calls)
     interpolate  :      5.18s CPU      5.34s WALL (      60 calls)

     Parallel routines
     fft_scatt_xy :     83.93s CPU     85.30s WALL (   44670 calls)
     fft_scatt_yz :    164.17s CPU    172.47s WALL (   44670 calls)

     PWSCF        :  50m11.09s CPU  51m 9.42s WALL


   This run was terminated on:   1:35:30  24Aug2022            

=------------------------------------------------------------------------------=
   JOB DONE.
=------------------------------------------------------------------------------=
