
     Program PWSCF v.6.4.1 starts on 24Aug2022 at  2:24:48 

     This program is part of the open-source Quantum ESPRESSO suite
     for quantum simulation of materials; please cite
         "P. Giannozzi et al., J. Phys.:Condens. Matter 21 395502 (2009);
         "P. Giannozzi et al., J. Phys.:Condens. Matter 29 465901 (2017);
          URL http://www.quantum-espresso.org", 
     in publications or presentations arising from this work. More details at
     http://www.quantum-espresso.org/quote

     Parallel version (MPI), running on     6 processors

     MPI processes distributed on     1 nodes
     R & G space division:  proc/nbgrp/npool/nimage =       6
     Reading input from distance-2.0.in

     Current dimensions of program PWSCF are:
     Max number of different atomic species (ntypx) = 10
     Max number of k-points (npk) =  40000
     Max angular momentum in pseudopotentials (lmaxx) =  3

     IMPORTANT: XC functional enforced from input :
     Exchange-correlation      = RVV10 ( 1  4 13  4 3 0)
     Any further DFT definition will be discarded
     Please, verify this is what you really want

               file H.pbe-rrkjus.UPF: wavefunction(s)  1S renormalized
               file V.pbe-spnl-rrkjus_psl.1.0.0.UPF: wavefunction(s)  3P 3D renormalized

     Subspace diagonalization in iterative solution of the eigenvalue problem:
     a serial algorithm will be used


     Parallelization info
     --------------------
     sticks:   dense  smooth     PW     G-vecs:    dense   smooth      PW
     Min        3051    1746    432               270999   117096   14629
     Max        3053    1747    437               271001   117099   14630
     Sum       18313   10477   2611              1626001   702581   87777



     bravais-lattice index     =            4
     lattice parameter (alat)  =      23.2937  a.u.
     unit-cell volume          =    8879.8548 (a.u.)^3
     number of atoms/cell      =           52
     number of atomic types    =            3
     number of electrons       =       211.00
     number of Kohn-Sham states=          127
     kinetic-energy cutoff     =      70.0000  Ry
     charge density cutoff     =     490.0000  Ry
     convergence threshold     =      1.0E-06
     mixing beta               =       0.7000
     number of iterations used =            8  plain     mixing
     Exchange-correlation      = RVV10 ( 1  4 13  4 3 0)

     celldm(1)=  23.293684  celldm(2)=   0.000000  celldm(3)=   0.811261
     celldm(4)=   0.000000  celldm(5)=   0.000000  celldm(6)=   0.000000

     crystal axes: (cart. coord. in units of alat)
               a(1) = (   1.000000   0.000000   0.000000 )  
               a(2) = (  -0.500000   0.866025   0.000000 )  
               a(3) = (   0.000000   0.000000   0.811261 )  

     reciprocal axes: (cart. coord. in units 2 pi/alat)
               b(1) = (  1.000000  0.577350 -0.000000 )  
               b(2) = (  0.000000  1.154701  0.000000 )  
               b(3) = (  0.000000 -0.000000  1.232649 )  


     PseudoPot. # 1 for H  read from file:
     /home/cristian/Escritorio/Proyecto_Grafeno/pseudopotenciales/H.pbe-rrkjus.UPF
     MD5 check sum: 7cc9d459525c9a0585f487a71c3c9563
     Pseudo is Ultrasoft, Zval =  1.0
     Generated by new atomic code, or converted to UPF format
     Using radial grid of 1061 points,  2 beta functions with: 
                l(1) =   0
                l(2) =   0
     Q(r) pseudized with 0 coefficients 


     PseudoPot. # 2 for C  read from file:
     /home/cristian/Escritorio/Proyecto_Grafeno/pseudopotenciales/C.pbe-n-rrkjus_psl.1.0.0.UPF
     MD5 check sum: 1fdd950c42eb37d8afe3dd2f8d12311e
     Pseudo is Ultrasoft + core correction, Zval =  4.0
     Generated using "atomic" code by A. Dal Corso v.6.3MaX
     Using radial grid of 1073 points,  4 beta functions with: 
                l(1) =   0
                l(2) =   0
                l(3) =   1
                l(4) =   1
     Q(r) pseudized with 0 coefficients 


     PseudoPot. # 3 for V  read from file:
     /home/cristian/Escritorio/Proyecto_Grafeno/pseudopotenciales/V.pbe-spnl-rrkjus_psl.1.0.0.UPF
     MD5 check sum: 79b3eb63147daf0b665d9f1bcc691206
     Pseudo is Ultrasoft + core correction, Zval = 13.0
     Generated using "atomic" code by A. Dal Corso v.6.2.2
     Using radial grid of 1181 points,  6 beta functions with: 
                l(1) =   0
                l(2) =   0
                l(3) =   1
                l(4) =   1
                l(5) =   2
                l(6) =   2
     Q(r) pseudized with 0 coefficients 


     vdW kernel table read from file rVV10_kernel_table
     MD5 check sum: b8e2538accc0c0b3206b45ba4daaba6c

     atomic species   valence    mass     pseudopotential
        H              1.00     1.00794     H ( 1.00)
        C              4.00    12.01070     C ( 1.00)
        V             13.00    50.94150     V ( 1.00)

     Starting magnetic structure 
     atomic species   magnetization
        H            0.500
        C            0.300
        V            0.800

     No symmetry found


                                    s                        frac. trans.

      isym =  1     identity                                     

 cryst.   s( 1) = (     1          0          0      )
                  (     0          1          0      )
                  (     0          0          1      )

 cart.    s( 1) = (  1.0000000  0.0000000  0.0000000 )
                  (  0.0000000  1.0000000  0.0000000 )
                  (  0.0000000  0.0000000  1.0000000 )


     point group C_1 (1)    
     there are  1 classes
     the character table:

       E    
A      1.00

     the symmetry operations in each class and the name of the first element:

     E        1
          identity                                               

   Cartesian axes

     site n.     atom                  positions (alat units)
         1           H   tau(   1) = (   0.2666667   0.4618802   0.1622522  )
         2           H   tau(   2) = (   0.2666667   0.4618802   0.2232649  )
         3           C   tau(   3) = (   0.0000000   0.0000000   0.0000000  )
         4           C   tau(   4) = (   0.0000000   0.1154701   0.0000000  )
         5           C   tau(   5) = (  -0.1000000   0.1732051   0.0000000  )
         6           C   tau(   6) = (  -0.1000000   0.2886751   0.0000000  )
         7           C   tau(   7) = (  -0.2000000   0.3464102   0.0000000  )
         8           C   tau(   8) = (  -0.2000000   0.4618802   0.0000000  )
         9           C   tau(   9) = (  -0.3000000   0.5196152   0.0000000  )
        10           C   tau(  10) = (  -0.3000000   0.6350853   0.0000000  )
        11           C   tau(  11) = (  -0.4000000   0.6928203   0.0000000  )
        12           C   tau(  12) = (  -0.4000000   0.8082904   0.0000000  )
        13           C   tau(  13) = (   0.2000000   0.0000000   0.0000000  )
        14           C   tau(  14) = (   0.2000000   0.1154701   0.0000000  )
        15           C   tau(  15) = (   0.1000000   0.1732051   0.0000000  )
        16           C   tau(  16) = (   0.1000000   0.2886751   0.0000000  )
        17           C   tau(  17) = (   0.0000000   0.3464102   0.0000000  )
        18           C   tau(  18) = (   0.0000000   0.4618802   0.0000000  )
        19           C   tau(  19) = (  -0.1000000   0.5196152   0.0000000  )
        20           C   tau(  20) = (  -0.1000000   0.6350853   0.0000000  )
        21           C   tau(  21) = (  -0.2000000   0.6928203   0.0000000  )
        22           C   tau(  22) = (  -0.2000000   0.8082904   0.0000000  )
        23           C   tau(  23) = (   0.4000000   0.0000000   0.0000000  )
        24           C   tau(  24) = (   0.4000000   0.1154701   0.0000000  )
        25           C   tau(  25) = (   0.3000000   0.1732051   0.0000000  )
        26           C   tau(  26) = (   0.3000000   0.2886751   0.0000000  )
        27           C   tau(  27) = (   0.2000000   0.3464102   0.0000000  )
        28           V   tau(  28) = (   0.2000000   0.4618802   0.0000000  )
        29           C   tau(  29) = (   0.1000000   0.5196152   0.0000000  )
        30           C   tau(  30) = (   0.1000000   0.6350853   0.0000000  )
        31           C   tau(  31) = (   0.0000000   0.6928203   0.0000000  )
        32           C   tau(  32) = (   0.0000000   0.8082904   0.0000000  )
        33           C   tau(  33) = (   0.6000000   0.0000000   0.0000000  )
        34           C   tau(  34) = (   0.6000000   0.1154701   0.0000000  )
        35           C   tau(  35) = (   0.5000000   0.1732051   0.0000000  )
        36           C   tau(  36) = (   0.5000000   0.2886751   0.0000000  )
        37           C   tau(  37) = (   0.4000000   0.3464102   0.0000000  )
        38           C   tau(  38) = (   0.4000000   0.4618802   0.0000000  )
        39           C   tau(  39) = (   0.3000000   0.5196152   0.0000000  )
        40           C   tau(  40) = (   0.3000000   0.6350853   0.0000000  )
        41           C   tau(  41) = (   0.2000000   0.6928203   0.0000000  )
        42           C   tau(  42) = (   0.2000000   0.8082904   0.0000000  )
        43           C   tau(  43) = (   0.8000000   0.0000000   0.0000000  )
        44           C   tau(  44) = (   0.8000000   0.1154701   0.0000000  )
        45           C   tau(  45) = (   0.7000000   0.1732051   0.0000000  )
        46           C   tau(  46) = (   0.7000000   0.2886751   0.0000000  )
        47           C   tau(  47) = (   0.6000000   0.3464102   0.0000000  )
        48           C   tau(  48) = (   0.6000000   0.4618802   0.0000000  )
        49           C   tau(  49) = (   0.5000000   0.5196152   0.0000000  )
        50           C   tau(  50) = (   0.5000000   0.6350853   0.0000000  )
        51           C   tau(  51) = (   0.4000000   0.6928203   0.0000000  )
        52           C   tau(  52) = (   0.4000000   0.8082904   0.0000000  )

   Crystallographic axes

     site n.     atom                  positions (cryst. coord.)
         1           H   tau(   1) = (  0.5333333  0.5333333  0.2000000  )
         2           H   tau(   2) = (  0.5333333  0.5333333  0.2752072  )
         3           C   tau(   3) = (  0.0000000  0.0000000  0.0000000  )
         4           C   tau(   4) = (  0.0666667  0.1333333  0.0000000  )
         5           C   tau(   5) = (  0.0000000  0.2000000  0.0000000  )
         6           C   tau(   6) = (  0.0666667  0.3333333  0.0000000  )
         7           C   tau(   7) = (  0.0000000  0.4000000  0.0000000  )
         8           C   tau(   8) = (  0.0666667  0.5333333  0.0000000  )
         9           C   tau(   9) = (  0.0000000  0.6000000  0.0000000  )
        10           C   tau(  10) = (  0.0666667  0.7333333  0.0000000  )
        11           C   tau(  11) = (  0.0000000  0.8000000  0.0000000  )
        12           C   tau(  12) = (  0.0666667  0.9333333  0.0000000  )
        13           C   tau(  13) = (  0.2000000  0.0000000  0.0000000  )
        14           C   tau(  14) = (  0.2666667  0.1333333  0.0000000  )
        15           C   tau(  15) = (  0.2000000  0.2000000  0.0000000  )
        16           C   tau(  16) = (  0.2666667  0.3333333  0.0000000  )
        17           C   tau(  17) = (  0.2000000  0.4000000  0.0000000  )
        18           C   tau(  18) = (  0.2666667  0.5333333  0.0000000  )
        19           C   tau(  19) = (  0.2000000  0.6000000  0.0000000  )
        20           C   tau(  20) = (  0.2666667  0.7333333  0.0000000  )
        21           C   tau(  21) = (  0.2000000  0.8000000  0.0000000  )
        22           C   tau(  22) = (  0.2666667  0.9333333  0.0000000  )
        23           C   tau(  23) = (  0.4000000  0.0000000  0.0000000  )
        24           C   tau(  24) = (  0.4666667  0.1333333  0.0000000  )
        25           C   tau(  25) = (  0.4000000  0.2000000  0.0000000  )
        26           C   tau(  26) = (  0.4666667  0.3333333  0.0000000  )
        27           C   tau(  27) = (  0.4000000  0.4000000  0.0000000  )
        28           V   tau(  28) = (  0.4666667  0.5333333  0.0000000  )
        29           C   tau(  29) = (  0.4000000  0.6000000  0.0000000  )
        30           C   tau(  30) = (  0.4666667  0.7333333  0.0000000  )
        31           C   tau(  31) = (  0.4000000  0.8000000  0.0000000  )
        32           C   tau(  32) = (  0.4666667  0.9333333  0.0000000  )
        33           C   tau(  33) = (  0.6000000  0.0000000  0.0000000  )
        34           C   tau(  34) = (  0.6666667  0.1333333  0.0000000  )
        35           C   tau(  35) = (  0.6000000  0.2000000  0.0000000  )
        36           C   tau(  36) = (  0.6666667  0.3333333  0.0000000  )
        37           C   tau(  37) = (  0.6000000  0.4000000  0.0000000  )
        38           C   tau(  38) = (  0.6666667  0.5333333  0.0000000  )
        39           C   tau(  39) = (  0.6000000  0.6000000  0.0000000  )
        40           C   tau(  40) = (  0.6666667  0.7333333  0.0000000  )
        41           C   tau(  41) = (  0.6000000  0.8000000  0.0000000  )
        42           C   tau(  42) = (  0.6666667  0.9333333  0.0000000  )
        43           C   tau(  43) = (  0.8000000  0.0000000  0.0000000  )
        44           C   tau(  44) = (  0.8666667  0.1333333  0.0000000  )
        45           C   tau(  45) = (  0.8000000  0.2000000  0.0000000  )
        46           C   tau(  46) = (  0.8666667  0.3333333  0.0000000  )
        47           C   tau(  47) = (  0.8000000  0.4000000  0.0000000  )
        48           C   tau(  48) = (  0.8666667  0.5333333  0.0000000  )
        49           C   tau(  49) = (  0.8000000  0.6000000  0.0000000  )
        50           C   tau(  50) = (  0.8666667  0.7333333  0.0000000  )
        51           C   tau(  51) = (  0.8000000  0.8000000  0.0000000  )
        52           C   tau(  52) = (  0.8666667  0.9333333  0.0000000  )

     number of k points=     1  Marzari-Vanderbilt smearing, width (Ry)=  0.0010
                       cart. coord. in units 2pi/alat
        k(    1) = (   0.0000000   0.0000000   0.0000000), wk =   1.0000000

                       cryst. coord.
        k(    1) = (   0.0000000   0.0000000   0.0000000), wk =   1.0000000

     Dense  grid:  1626001 G-vectors     FFT dimensions: ( 180, 180, 135)

     Smooth grid:   702581 G-vectors     FFT dimensions: ( 125, 125, 108)

     Dynamical RAM for                 wfc:      28.36 MB

     Dynamical RAM for     wfc (w. buffer):      85.09 MB

     Dynamical RAM for           str. fact:      12.41 MB

     Dynamical RAM for           local pot:       0.00 MB

     Dynamical RAM for          nlocal pot:      92.46 MB

     Dynamical RAM for                qrad:      19.73 MB

     Dynamical RAM for          rho,v,vnew:      58.92 MB

     Dynamical RAM for               rhoin:      19.64 MB

     Dynamical RAM for            rho*nmix:     132.32 MB

     Dynamical RAM for           G-vectors:      16.40 MB

     Dynamical RAM for          h,s,v(r/c):      11.81 MB

     Dynamical RAM for          <psi|beta>:       0.80 MB

     Dynamical RAM for                 psi:     113.46 MB

     Dynamical RAM for                hpsi:     113.46 MB

     Dynamical RAM for                spsi:     113.46 MB

     Dynamical RAM for      wfcinit/wfcrot:      93.90 MB

     Dynamical RAM for           addusdens:     975.89 MB

     Estimated static dynamical RAM per process >     487.63 MB

     Estimated max dynamical RAM per process >       1.43 GB

     Estimated total dynamical RAM >       8.58 GB
     Generating pointlists ...
     new r_m :   0.0252 (alat units)  0.5862 (a.u.) for type    1
     new r_m :   0.0476 (alat units)  1.1095 (a.u.) for type    2
     new r_m :   0.0476 (alat units)  1.1095 (a.u.) for type    3

     Check: negative core charge=   -0.000002

     Initial potential from superposition of free atoms

     starting charge  210.80465, renormalised to  211.00000

     negative rho (up, down):  1.336E-04 1.791E-02


---------------------------------------------------------------------------------
Carrying out rVV10 run using the following parameters:
Nqs =      20    Nr_points =    1024   r_max =   100.000
b_value =  6.30000    beta =  0.00901
     q_mesh =  0.00010000  0.00030000  0.00058939  0.00100810
               0.00161396  0.00249058  0.00375900  0.00559430
               0.00824984  0.01209221  0.01765183  0.02569619
               0.03733578  0.05417739  0.07854596  0.11380545
               0.16482331  0.23864234  0.34545298  0.50000000

Gradients computed in Reciprocal space

---------------------------------------------------------------------------------


     Starting wfcs are  208 randomized atomic wfcs

     total cpu time spent up to now is       75.5 secs

     Self-consistent Calculation

     iteration #  1     ecut=    70.00 Ry     beta= 0.70
     Davidson diagonalization with overlap
     ethr =  1.00E-02,  avg # of iterations =  2.5

     negative rho (up, down):  3.532E-04 1.439E-02

     total cpu time spent up to now is      203.2 secs

     total energy              =    -752.45902421 Ry
     Harris-Foulkes estimate   =    -757.09188940 Ry
     estimated scf accuracy    <      12.58872779 Ry

     total magnetization       =     5.00 Bohr mag/cell
     absolute magnetization    =     6.06 Bohr mag/cell

     iteration #  2     ecut=    70.00 Ry     beta= 0.70
     Davidson diagonalization with overlap
     ethr =  5.97E-03,  avg # of iterations =  6.0

     negative rho (up, down):  5.672E-03 1.722E-01

     total cpu time spent up to now is      323.8 secs

     total energy              =    -745.09325370 Ry
     Harris-Foulkes estimate   =    -769.37190600 Ry
     estimated scf accuracy    <      85.30854687 Ry

     total magnetization       =     5.00 Bohr mag/cell
     absolute magnetization    =     5.23 Bohr mag/cell

     iteration #  3     ecut=    70.00 Ry     beta= 0.70
     Davidson diagonalization with overlap
     ethr =  5.97E-03,  avg # of iterations =  5.0

     negative rho (up, down):  1.755E-03 3.603E-02

     total cpu time spent up to now is      485.9 secs

     total energy              =    -755.76421782 Ry
     Harris-Foulkes estimate   =    -758.08756161 Ry
     estimated scf accuracy    <      10.27381581 Ry

     total magnetization       =     5.00 Bohr mag/cell
     absolute magnetization    =     5.78 Bohr mag/cell

     iteration #  4     ecut=    70.00 Ry     beta= 0.70
     Davidson diagonalization with overlap
     ethr =  4.87E-03,  avg # of iterations =  3.0

     negative rho (up, down):  4.266E-02 2.326E-02

     total cpu time spent up to now is      580.4 secs

     total energy              =    -757.01450779 Ry
     Harris-Foulkes estimate   =    -757.46667874 Ry
     estimated scf accuracy    <       1.29330190 Ry

     total magnetization       =     1.00 Bohr mag/cell
     absolute magnetization    =     1.92 Bohr mag/cell

     iteration #  5     ecut=    70.00 Ry     beta= 0.70
     Davidson diagonalization with overlap
     ethr =  6.13E-04,  avg # of iterations =  7.0

     negative rho (up, down):  5.094E-02 1.997E-02

     total cpu time spent up to now is      695.7 secs

     total energy              =    -757.20304275 Ry
     Harris-Foulkes estimate   =    -757.32235965 Ry
     estimated scf accuracy    <       0.39003663 Ry

     total magnetization       =     1.00 Bohr mag/cell
     absolute magnetization    =     1.56 Bohr mag/cell

     iteration #  6     ecut=    70.00 Ry     beta= 0.70
     Davidson diagonalization with overlap
     ethr =  1.85E-04,  avg # of iterations =  4.0

     negative rho (up, down):  2.713E-02 1.933E-02

     total cpu time spent up to now is      799.0 secs

     total energy              =    -757.28832329 Ry
     Harris-Foulkes estimate   =    -757.31206767 Ry
     estimated scf accuracy    <       0.18122379 Ry

     total magnetization       =     1.00 Bohr mag/cell
     absolute magnetization    =     1.51 Bohr mag/cell

     iteration #  7     ecut=    70.00 Ry     beta= 0.70
     Davidson diagonalization with overlap
     ethr =  8.59E-05,  avg # of iterations =  3.0

     negative rho (up, down):  3.580E-02 1.358E-02

     total cpu time spent up to now is      899.8 secs

     total energy              =    -757.30828646 Ry
     Harris-Foulkes estimate   =    -757.32549690 Ry
     estimated scf accuracy    <       0.06095107 Ry

     total magnetization       =     1.00 Bohr mag/cell
     absolute magnetization    =     1.40 Bohr mag/cell

     iteration #  8     ecut=    70.00 Ry     beta= 0.70
     Davidson diagonalization with overlap
     ethr =  2.89E-05,  avg # of iterations =  6.0

     negative rho (up, down):  3.070E-02 2.395E-02

     total cpu time spent up to now is     1005.7 secs

     total energy              =    -757.31952012 Ry
     Harris-Foulkes estimate   =    -757.32608237 Ry
     estimated scf accuracy    <       0.04032782 Ry

     total magnetization       =     1.00 Bohr mag/cell
     absolute magnetization    =     1.40 Bohr mag/cell

     iteration #  9     ecut=    70.00 Ry     beta= 0.70
     Davidson diagonalization with overlap
     ethr =  1.91E-05,  avg # of iterations =  6.0

     negative rho (up, down):  3.653E-02 1.905E-02

     total cpu time spent up to now is     1105.4 secs

     total energy              =    -757.32253837 Ry
     Harris-Foulkes estimate   =    -757.32681923 Ry
     estimated scf accuracy    <       0.02017107 Ry

     total magnetization       =     1.00 Bohr mag/cell
     absolute magnetization    =     1.41 Bohr mag/cell

     iteration # 10     ecut=    70.00 Ry     beta= 0.70
     Davidson diagonalization with overlap
     ethr =  9.56E-06,  avg # of iterations =  3.0

     negative rho (up, down):  3.621E-02 1.734E-02

     total cpu time spent up to now is     1200.9 secs

     total energy              =    -757.32397409 Ry
     Harris-Foulkes estimate   =    -757.32554556 Ry
     estimated scf accuracy    <       0.01904059 Ry

     total magnetization       =     1.00 Bohr mag/cell
     absolute magnetization    =     1.42 Bohr mag/cell

     iteration # 11     ecut=    70.00 Ry     beta= 0.70
     Davidson diagonalization with overlap
     ethr =  9.02E-06,  avg # of iterations =  1.5

     negative rho (up, down):  3.390E-02 1.953E-02

     total cpu time spent up to now is     1292.7 secs

     total energy              =    -757.32601239 Ry
     Harris-Foulkes estimate   =    -757.32531718 Ry
     estimated scf accuracy    <       0.00345379 Ry

     total magnetization       =     1.00 Bohr mag/cell
     absolute magnetization    =     1.42 Bohr mag/cell

     iteration # 12     ecut=    70.00 Ry     beta= 0.70
     Davidson diagonalization with overlap
     ethr =  1.64E-06,  avg # of iterations =  3.0

     negative rho (up, down):  3.312E-02 8.785E-03

     total cpu time spent up to now is     1390.6 secs

     total energy              =    -757.32701324 Ry
     Harris-Foulkes estimate   =    -757.32630317 Ry
     estimated scf accuracy    <       0.00168101 Ry

     total magnetization       =     1.00 Bohr mag/cell
     absolute magnetization    =     1.44 Bohr mag/cell

     iteration # 13     ecut=    70.00 Ry     beta= 0.70
     Davidson diagonalization with overlap
     ethr =  7.97E-07,  avg # of iterations =  2.5

     negative rho (up, down):  3.341E-02 7.833E-03

     total cpu time spent up to now is     1484.7 secs

     total energy              =    -757.32711773 Ry
     Harris-Foulkes estimate   =    -757.32710079 Ry
     estimated scf accuracy    <       0.00043145 Ry

     total magnetization       =     1.00 Bohr mag/cell
     absolute magnetization    =     1.46 Bohr mag/cell

     iteration # 14     ecut=    70.00 Ry     beta= 0.70
     Davidson diagonalization with overlap
     ethr =  2.04E-07,  avg # of iterations =  2.5

     negative rho (up, down):  3.376E-02 6.488E-03

     total cpu time spent up to now is     1578.1 secs

     total energy              =    -757.32718933 Ry
     Harris-Foulkes estimate   =    -757.32715806 Ry
     estimated scf accuracy    <       0.00017743 Ry

     total magnetization       =     1.00 Bohr mag/cell
     absolute magnetization    =     1.48 Bohr mag/cell

     iteration # 15     ecut=    70.00 Ry     beta= 0.70
     Davidson diagonalization with overlap
     ethr =  8.41E-08,  avg # of iterations =  2.5

     negative rho (up, down):  3.383E-02 5.067E-03

     total cpu time spent up to now is     1671.2 secs

     total energy              =    -757.32720951 Ry
     Harris-Foulkes estimate   =    -757.32720292 Ry
     estimated scf accuracy    <       0.00014575 Ry

     total magnetization       =     1.00 Bohr mag/cell
     absolute magnetization    =     1.49 Bohr mag/cell

     iteration # 16     ecut=    70.00 Ry     beta= 0.70
     Davidson diagonalization with overlap
     ethr =  6.91E-08,  avg # of iterations =  1.0

     negative rho (up, down):  3.387E-02 3.546E-03

     total cpu time spent up to now is     1762.8 secs

     total energy              =    -757.32721624 Ry
     Harris-Foulkes estimate   =    -757.32721321 Ry
     estimated scf accuracy    <       0.00015271 Ry

     total magnetization       =     1.00 Bohr mag/cell
     absolute magnetization    =     1.50 Bohr mag/cell

     iteration # 17     ecut=    70.00 Ry     beta= 0.70
     Davidson diagonalization with overlap
     ethr =  6.91E-08,  avg # of iterations =  1.0

     negative rho (up, down):  3.403E-02 6.388E-03

     total cpu time spent up to now is     1854.4 secs

     total energy              =    -757.32720329 Ry
     Harris-Foulkes estimate   =    -757.32722151 Ry
     estimated scf accuracy    <       0.00022334 Ry

     total magnetization       =     1.00 Bohr mag/cell
     absolute magnetization    =     1.51 Bohr mag/cell

     iteration # 18     ecut=    70.00 Ry     beta= 0.70
     Davidson diagonalization with overlap
     ethr =  6.91E-08,  avg # of iterations =  1.0

     negative rho (up, down):  3.386E-02 2.654E-03

     total cpu time spent up to now is     1945.9 secs

     total energy              =    -757.32722394 Ry
     Harris-Foulkes estimate   =    -757.32720565 Ry
     estimated scf accuracy    <       0.00014656 Ry

     total magnetization       =     1.00 Bohr mag/cell
     absolute magnetization    =     1.52 Bohr mag/cell

     iteration # 19     ecut=    70.00 Ry     beta= 0.70
     Davidson diagonalization with overlap
     ethr =  6.91E-08,  avg # of iterations =  1.5

     negative rho (up, down):  3.411E-02 6.117E-03

     total cpu time spent up to now is     2038.6 secs

     total energy              =    -757.32719320 Ry
     Harris-Foulkes estimate   =    -757.32723248 Ry
     estimated scf accuracy    <       0.00007405 Ry

     total magnetization       =     1.00 Bohr mag/cell
     absolute magnetization    =     1.53 Bohr mag/cell

     iteration # 20     ecut=    70.00 Ry     beta= 0.70
     Davidson diagonalization with overlap
     ethr =  3.51E-08,  avg # of iterations =  7.0

     negative rho (up, down):  3.394E-02 3.217E-03

     total cpu time spent up to now is     2143.8 secs

     total energy              =    -757.32722977 Ry
     Harris-Foulkes estimate   =    -757.32720897 Ry
     estimated scf accuracy    <       0.00006263 Ry

     total magnetization       =     1.00 Bohr mag/cell
     absolute magnetization    =     1.54 Bohr mag/cell

     iteration # 21     ecut=    70.00 Ry     beta= 0.70
     Davidson diagonalization with overlap
     ethr =  2.97E-08,  avg # of iterations =  2.0

     negative rho (up, down):  3.390E-02 2.479E-03

     total cpu time spent up to now is     2236.2 secs

     total energy              =    -757.32723787 Ry
     Harris-Foulkes estimate   =    -757.32723652 Ry
     estimated scf accuracy    <       0.00004537 Ry

     total magnetization       =     1.00 Bohr mag/cell
     absolute magnetization    =     1.54 Bohr mag/cell

     iteration # 22     ecut=    70.00 Ry     beta= 0.70
     Davidson diagonalization with overlap
     ethr =  2.15E-08,  avg # of iterations =  1.5

     negative rho (up, down):  3.391E-02 3.391E-03

     total cpu time spent up to now is     2328.5 secs

     total energy              =    -757.32723226 Ry
     Harris-Foulkes estimate   =    -757.32724032 Ry
     estimated scf accuracy    <       0.00003827 Ry

     total magnetization       =     1.00 Bohr mag/cell
     absolute magnetization    =     1.55 Bohr mag/cell

     iteration # 23     ecut=    70.00 Ry     beta= 0.70
     Davidson diagonalization with overlap
     ethr =  1.81E-08,  avg # of iterations =  2.5

     negative rho (up, down):  3.390E-02 2.669E-03

     total cpu time spent up to now is     2432.2 secs

     total energy              =    -757.32724153 Ry
     Harris-Foulkes estimate   =    -757.32724104 Ry
     estimated scf accuracy    <       0.00000873 Ry

     total magnetization       =     1.00 Bohr mag/cell
     absolute magnetization    =     1.56 Bohr mag/cell

     iteration # 24     ecut=    70.00 Ry     beta= 0.70
     Davidson diagonalization with overlap
     ethr =  4.14E-09,  avg # of iterations =  2.0

     negative rho (up, down):  3.389E-02 2.334E-03

     total cpu time spent up to now is     2526.3 secs

     total energy              =    -757.32724289 Ry
     Harris-Foulkes estimate   =    -757.32724243 Ry
     estimated scf accuracy    <       0.00000342 Ry

     total magnetization       =     1.00 Bohr mag/cell
     absolute magnetization    =     1.56 Bohr mag/cell

     iteration # 25     ecut=    70.00 Ry     beta= 0.70
     Davidson diagonalization with overlap
     ethr =  1.62E-09,  avg # of iterations =  2.5

     negative rho (up, down):  3.387E-02 2.933E-03

     total cpu time spent up to now is     2620.1 secs

     total energy              =    -757.32724050 Ry
     Harris-Foulkes estimate   =    -757.32724324 Ry
     estimated scf accuracy    <       0.00000279 Ry

     total magnetization       =     1.00 Bohr mag/cell
     absolute magnetization    =     1.55 Bohr mag/cell

     iteration # 26     ecut=    70.00 Ry     beta= 0.70
     Davidson diagonalization with overlap
     ethr =  1.32E-09,  avg # of iterations =  3.5

     negative rho (up, down):  3.387E-02 2.433E-03

     total cpu time spent up to now is     2749.5 secs

     total energy              =    -757.32724289 Ry
     Harris-Foulkes estimate   =    -757.32724384 Ry
     estimated scf accuracy    <       0.00000219 Ry

     total magnetization       =     1.00 Bohr mag/cell
     absolute magnetization    =     1.55 Bohr mag/cell

     iteration # 27     ecut=    70.00 Ry     beta= 0.70
     Davidson diagonalization with overlap
     ethr =  1.04E-09,  avg # of iterations =  3.0

     negative rho (up, down):  3.386E-02 2.297E-03

     Magnetic moment per site:
     atom:    1    charge:    0.2163    magn:   -0.0000    constr:    0.0000
     atom:    2    charge:    0.2075    magn:    0.0002    constr:    0.0000
     atom:    3    charge:    1.7173    magn:   -0.0075    constr:    0.0000
     atom:    4    charge:    1.7161    magn:    0.0113    constr:    0.0000
     atom:    5    charge:    1.7181    magn:   -0.0042    constr:    0.0000
     atom:    6    charge:    1.7141    magn:    0.0025    constr:    0.0000
     atom:    7    charge:    1.7185    magn:   -0.0036    constr:    0.0000
     atom:    8    charge:    1.7152    magn:    0.0063    constr:    0.0000
     atom:    9    charge:    1.7183    magn:   -0.0057    constr:    0.0000
     atom:   10    charge:    1.7123    magn:    0.0184    constr:    0.0000
     atom:   11    charge:    1.7187    magn:   -0.0089    constr:    0.0000
     atom:   12    charge:    1.7157    magn:    0.0379    constr:    0.0000
     atom:   13    charge:    1.7184    magn:   -0.0090    constr:    0.0000
     atom:   14    charge:    1.7132    magn:    0.0138    constr:    0.0000
     atom:   15    charge:    1.7172    magn:   -0.0064    constr:    0.0000
     atom:   16    charge:    1.7101    magn:    0.0218    constr:    0.0000
     atom:   17    charge:    1.7273    magn:   -0.0041    constr:    0.0000
     atom:   18    charge:    1.7103    magn:    0.0262    constr:    0.0000
     atom:   19    charge:    1.7169    magn:   -0.0076    constr:    0.0000
     atom:   20    charge:    1.7152    magn:    0.0282    constr:    0.0000
     atom:   21    charge:    1.7188    magn:   -0.0088    constr:    0.0000
     atom:   22    charge:    1.7153    magn:    0.0363    constr:    0.0000
     atom:   23    charge:    1.7175    magn:   -0.0073    constr:    0.0000
     atom:   24    charge:    1.7161    magn:    0.0109    constr:    0.0000
     atom:   25    charge:    1.7173    magn:   -0.0063    constr:    0.0000
     atom:   26    charge:    1.7101    magn:    0.0203    constr:    0.0000
     atom:   27    charge:    1.9150    magn:   -0.0026    constr:    0.0000
     atom:   28    charge:    7.8610    magn:    0.1008    constr:    0.0000
     atom:   29    charge:    1.9143    magn:    0.0007    constr:    0.0000
     atom:   30    charge:    1.7127    magn:    0.0432    constr:    0.0000
     atom:   31    charge:    1.7165    magn:   -0.0098    constr:    0.0000
     atom:   32    charge:    1.7157    magn:    0.0105    constr:    0.0000
     atom:   33    charge:    1.7183    magn:   -0.0045    constr:    0.0000
     atom:   34    charge:    1.7140    magn:    0.0077    constr:    0.0000
     atom:   35    charge:    1.7182    magn:   -0.0042    constr:    0.0000
     atom:   36    charge:    1.7142    magn:    0.0025    constr:    0.0000
     atom:   37    charge:    1.7272    magn:   -0.0041    constr:    0.0000
     atom:   38    charge:    1.7112    magn:    0.0241    constr:    0.0000
     atom:   39    charge:    1.9156    magn:    0.0000    constr:    0.0000
     atom:   40    charge:    1.7132    magn:    0.0425    constr:    0.0000
     atom:   41    charge:    1.7261    magn:   -0.0074    constr:    0.0000
     atom:   42    charge:    1.7141    magn:    0.0029    constr:    0.0000
     atom:   43    charge:    1.7182    magn:   -0.0047    constr:    0.0000
     atom:   44    charge:    1.7140    magn:    0.0080    constr:    0.0000
     atom:   45    charge:    1.7245    magn:   -0.0030    constr:    0.0000
     atom:   46    charge:    1.7135    magn:    0.0047    constr:    0.0000
     atom:   47    charge:    1.7185    magn:   -0.0037    constr:    0.0000
     atom:   48    charge:    1.7153    magn:    0.0063    constr:    0.0000
     atom:   49    charge:    1.7168    magn:   -0.0073    constr:    0.0000
     atom:   50    charge:    1.7151    magn:    0.0273    constr:    0.0000
     atom:   51    charge:    1.7164    magn:   -0.0097    constr:    0.0000
     atom:   52    charge:    1.7158    magn:    0.0108    constr:    0.0000

     total cpu time spent up to now is     2869.0 secs

     End of self-consistent calculation

 ------ SPIN UP ------------


          k = 0.0000 0.0000 0.0000 ( 87777 PWs)   bands (ev):

   -62.8222 -37.9267 -37.8946 -36.5889 -19.6313 -18.8048 -18.7706 -18.7195
   -18.6804 -18.6629 -18.2359 -16.9367 -16.9357 -16.9238 -16.8022 -16.7880
   -16.5134 -16.0789 -16.0773 -15.9847 -15.8306 -15.8291 -15.0809 -13.8948
   -13.8909 -13.8768 -13.8562 -13.8556 -13.1306 -12.9153 -12.9112 -12.8947
   -12.5031 -12.5025 -12.1107 -11.6437 -11.6390 -11.5162 -11.1373 -11.1354
   -10.1539  -9.3372  -9.3309  -9.2521  -9.1801  -9.1771  -9.0888  -9.0647
    -9.0617  -9.0477  -8.4698  -8.4607  -8.1097  -7.8926  -7.8846  -7.8523
    -7.6900  -7.6710  -7.2512  -7.2453  -6.9645  -6.9010  -6.8647  -6.6975
    -6.6942  -6.6802  -6.5902  -6.5850  -6.5399  -6.4371  -6.4235  -6.3927
    -6.3776  -6.3767  -6.3290  -6.1688  -5.2598  -5.2501  -5.1583  -5.0989
    -4.9419  -4.9404  -4.8296  -4.7413  -4.6169  -4.6055  -4.6020  -4.2191
    -3.9839  -3.9769  -3.7569  -3.7529  -3.6546  -3.6162  -3.4951  -3.4932
    -2.8515  -2.2649  -2.2541  -2.2198  -2.2014  -1.7433  -1.6808  -1.6747
    -0.5118  -0.2451  -0.2366   1.0519   1.0757   1.0874   1.1148   1.7979
     2.0486   2.0558   2.4866   2.8945   2.9022   2.9787   3.4895   3.5165
     3.5328   3.7387   3.7522   3.7886   3.9044   4.0031   4.0076

     occupation numbers 
     1.0000   1.0000   1.0000   1.0000   1.0000   1.0000   1.0000   1.0000
     1.0000   1.0000   1.0000   1.0000   1.0000   1.0000   1.0000   1.0000
     1.0000   1.0000   1.0000   1.0000   1.0000   1.0000   1.0000   1.0000
     1.0000   1.0000   1.0000   1.0000   1.0000   1.0000   1.0000   1.0000
     1.0000   1.0000   1.0000   1.0000   1.0000   1.0000   1.0000   1.0000
     1.0000   1.0000   1.0000   1.0000   1.0000   1.0000   1.0000   1.0000
     1.0000   1.0000   1.0000   1.0000   1.0000   1.0000   1.0000   1.0000
     1.0000   1.0000   1.0000   1.0000   1.0000   1.0000   1.0000   1.0000
     1.0000   1.0000   1.0000   1.0000   1.0000   1.0000   1.0000   1.0000
     1.0000   1.0000   1.0000   1.0000   1.0000   1.0000   1.0000   1.0000
     1.0000   1.0000   1.0000   1.0000   1.0000   1.0000   1.0000   1.0000
     1.0000   1.0000   1.0000   1.0000   1.0000   1.0000   1.0000   1.0000
     1.0000   1.0000   1.0000   1.0000   1.0000   1.0000   1.0000   1.0000
     1.0000   0.7202   0.2798   0.0000   0.0000   0.0000   0.0000   0.0000
     0.0000   0.0000   0.0000   0.0000   0.0000   0.0000   0.0000   0.0000
     0.0000   0.0000   0.0000   0.0000   0.0000   0.0000   0.0000

 ------ SPIN DOWN ----------


          k = 0.0000 0.0000 0.0000 ( 87777 PWs)   bands (ev):

   -62.6281 -37.8051 -37.6957 -36.3233 -19.6098 -18.7882 -18.7445 -18.6994
   -18.6654 -18.6452 -18.2035 -16.9221 -16.9196 -16.9013 -16.7771 -16.7569
   -16.4990 -16.0532 -16.0490 -15.9684 -15.8092 -15.8080 -15.0661 -13.8654
   -13.8629 -13.8511 -13.8482 -13.8208 -13.1338 -12.9058 -12.8993 -12.8793
   -12.4958 -12.4935 -12.0924 -11.6243 -11.6226 -11.5031 -11.1252 -11.1225
   -10.1393  -9.3221  -9.3122  -9.2393  -9.1647  -9.1587  -9.0807  -9.0499
    -9.0484  -9.0371  -8.4618  -8.4546  -8.0809  -7.8816  -7.8721  -7.8441
    -7.6643  -7.6476  -7.2420  -7.2367  -6.8966  -6.8718  -6.7962  -6.6663
    -6.6554  -6.6385  -6.5786  -6.5745  -6.5304  -6.4282  -6.4131  -6.3882
    -6.3714  -6.3678  -6.3206  -6.0922  -5.2523  -5.2410  -5.0928  -4.9983
    -4.9323  -4.9302  -4.8238  -4.7352  -4.5785  -4.5603  -4.5427  -4.1816
    -3.9426  -3.9167  -3.6830  -3.6796  -3.6066  -3.5868  -3.4892  -3.4859
    -2.8165  -2.2013  -2.1842  -2.1594  -2.1310  -1.6711  -1.6605  -1.6420
    -0.5080  -0.0633   0.0327   1.0971   1.1063   1.1336   1.1871   1.8670
     2.1105   2.1330   2.4909   2.9649   2.9715   3.0216   3.4958   3.5254
     3.5551   3.7406   3.7541   3.7947   3.9350   4.0662   4.0848

     occupation numbers 
     1.0000   1.0000   1.0000   1.0000   1.0000   1.0000   1.0000   1.0000
     1.0000   1.0000   1.0000   1.0000   1.0000   1.0000   1.0000   1.0000
     1.0000   1.0000   1.0000   1.0000   1.0000   1.0000   1.0000   1.0000
     1.0000   1.0000   1.0000   1.0000   1.0000   1.0000   1.0000   1.0000
     1.0000   1.0000   1.0000   1.0000   1.0000   1.0000   1.0000   1.0000
     1.0000   1.0000   1.0000   1.0000   1.0000   1.0000   1.0000   1.0000
     1.0000   1.0000   1.0000   1.0000   1.0000   1.0000   1.0000   1.0000
     1.0000   1.0000   1.0000   1.0000   1.0000   1.0000   1.0000   1.0000
     1.0000   1.0000   1.0000   1.0000   1.0000   1.0000   1.0000   1.0000
     1.0000   1.0000   1.0000   1.0000   1.0000   1.0000   1.0000   1.0000
     1.0000   1.0000   1.0000   1.0000   1.0000   1.0000   1.0000   1.0000
     1.0000   1.0000   1.0000   1.0000   1.0000   1.0000   1.0000   1.0000
     1.0000   1.0000   1.0000   1.0000   1.0000   1.0000   1.0000   1.0000
     1.0000   0.0000   0.0000   0.0000   0.0000   0.0000   0.0000   0.0000
     0.0000   0.0000   0.0000   0.0000   0.0000   0.0000   0.0000   0.0000
     0.0000   0.0000   0.0000   0.0000   0.0000   0.0000   0.0000

     the Fermi energy is    -0.2392 ev

!    total energy              =    -757.32724396 Ry
     Harris-Foulkes estimate   =    -757.32724413 Ry
     estimated scf accuracy    <       0.00000045 Ry

     The total energy is the sum of the following terms:

     one-electron contribution =   -2600.89353834 Ry
     hartree contribution      =    1347.28349214 Ry
     xc contribution           =    -252.70360285 Ry
     ewald contribution        =     748.98666598 Ry
     smearing contrib. (-TS)   =      -0.00026088 Ry

     total magnetization       =     1.00 Bohr mag/cell
     absolute magnetization    =     1.54 Bohr mag/cell

     convergence has been achieved in  27 iterations

     Writing output data file gr-12-baricentro.save/

     init_run     :     72.89s CPU     74.43s WALL (       1 calls)
     electrons    :   2741.28s CPU   2793.65s WALL (       1 calls)

     Called by init_run:
     wfcinit      :     42.34s CPU     42.66s WALL (       1 calls)
     wfcinit:atom :      0.05s CPU      0.08s WALL (       2 calls)
     wfcinit:wfcr :     41.96s CPU     42.18s WALL (       2 calls)
     potinit      :     12.69s CPU     13.26s WALL (       1 calls)
     hinit0       :      9.29s CPU      9.33s WALL (       1 calls)

     Called by electrons:
     c_bands      :   1772.49s CPU   1783.12s WALL (      27 calls)
     sum_band     :    561.83s CPU    579.18s WALL (      27 calls)
     v_of_rho     :    202.29s CPU    212.29s WALL (      28 calls)
     v_h          :      2.05s CPU      2.13s WALL (      28 calls)
     v_xc         :    200.24s CPU    210.16s WALL (      28 calls)
     newd         :    200.73s CPU    215.74s WALL (      28 calls)
     mix_rho      :     12.08s CPU     12.32s WALL (      27 calls)

     Called by c_bands:
     init_us_2    :      4.96s CPU      5.01s WALL (     110 calls)
     cegterg      :   1760.05s CPU   1770.61s WALL (      54 calls)

     Called by sum_band:
     sum_band:bec :      0.04s CPU      0.04s WALL (      54 calls)
     addusdens    :    348.60s CPU    364.42s WALL (      27 calls)

     Called by *egterg:
     h_psi        :    926.02s CPU    933.42s WALL (     228 calls)
     s_psi        :    311.44s CPU    311.61s WALL (     228 calls)
     g_psi        :      0.98s CPU      0.99s WALL (     172 calls)
     cdiaghg      :     16.26s CPU     16.26s WALL (     226 calls)
     cegterg:over :    220.61s CPU    220.69s WALL (     172 calls)
     cegterg:upda :    138.19s CPU    139.09s WALL (     172 calls)
     cegterg:last :     91.82s CPU     91.84s WALL (      54 calls)

     Called by h_psi:
     h_psi:pot    :    925.02s CPU    931.17s WALL (     228 calls)
     h_psi:calbec :    311.95s CPU    312.07s WALL (     228 calls)
     vloc_psi     :    302.09s CPU    308.02s WALL (     228 calls)
     add_vuspsi   :    310.98s CPU    311.07s WALL (     228 calls)

     General routines
     calbec       :    442.38s CPU    442.56s WALL (     282 calls)
     fft          :    115.02s CPU    119.06s WALL (    2094 calls)
     ffts         :      2.02s CPU      2.12s WALL (     110 calls)
     fftw         :    319.51s CPU    325.97s WALL (   39698 calls)
     interpolate  :      4.82s CPU      5.01s WALL (      56 calls)

     Parallel routines
     fft_scatt_xy :     79.95s CPU     81.12s WALL (   41902 calls)
     fft_scatt_yz :    144.02s CPU    151.71s WALL (   41902 calls)

     PWSCF        :  46m55.40s CPU  47m49.76s WALL


   This run was terminated on:   3:12:37  24Aug2022            

=------------------------------------------------------------------------------=
   JOB DONE.
=------------------------------------------------------------------------------=
