
     Program PWSCF v.6.4.1 starts on 23Aug2022 at 18: 1:59 

     This program is part of the open-source Quantum ESPRESSO suite
     for quantum simulation of materials; please cite
         "P. Giannozzi et al., J. Phys.:Condens. Matter 21 395502 (2009);
         "P. Giannozzi et al., J. Phys.:Condens. Matter 29 465901 (2017);
          URL http://www.quantum-espresso.org", 
     in publications or presentations arising from this work. More details at
     http://www.quantum-espresso.org/quote

     Parallel version (MPI), running on     6 processors

     MPI processes distributed on     1 nodes
     R & G space division:  proc/nbgrp/npool/nimage =       6
     Reading input from distance-5.0.in

     Current dimensions of program PWSCF are:
     Max number of different atomic species (ntypx) = 10
     Max number of k-points (npk) =  40000
     Max angular momentum in pseudopotentials (lmaxx) =  3

     IMPORTANT: XC functional enforced from input :
     Exchange-correlation      = RVV10 ( 1  4 13  4 3 0)
     Any further DFT definition will be discarded
     Please, verify this is what you really want

               file H.pbe-rrkjus.UPF: wavefunction(s)  1S renormalized
               file V.pbe-spnl-rrkjus_psl.1.0.0.UPF: wavefunction(s)  3P 3D renormalized

     Subspace diagonalization in iterative solution of the eigenvalue problem:
     a serial algorithm will be used


     Parallelization info
     --------------------
     sticks:   dense  smooth     PW     G-vecs:    dense   smooth      PW
     Min        3051    1746    432               270999   117096   14629
     Max        3053    1747    437               271001   117099   14630
     Sum       18313   10477   2611              1626001   702581   87777



     bravais-lattice index     =            4
     lattice parameter (alat)  =      23.2937  a.u.
     unit-cell volume          =    8879.8548 (a.u.)^3
     number of atoms/cell      =           52
     number of atomic types    =            3
     number of electrons       =       211.00
     number of Kohn-Sham states=          127
     kinetic-energy cutoff     =      70.0000  Ry
     charge density cutoff     =     490.0000  Ry
     convergence threshold     =      1.0E-06
     mixing beta               =       0.7000
     number of iterations used =            8  plain     mixing
     Exchange-correlation      = RVV10 ( 1  4 13  4 3 0)

     celldm(1)=  23.293684  celldm(2)=   0.000000  celldm(3)=   0.811261
     celldm(4)=   0.000000  celldm(5)=   0.000000  celldm(6)=   0.000000

     crystal axes: (cart. coord. in units of alat)
               a(1) = (   1.000000   0.000000   0.000000 )  
               a(2) = (  -0.500000   0.866025   0.000000 )  
               a(3) = (   0.000000   0.000000   0.811261 )  

     reciprocal axes: (cart. coord. in units 2 pi/alat)
               b(1) = (  1.000000  0.577350 -0.000000 )  
               b(2) = (  0.000000  1.154701  0.000000 )  
               b(3) = (  0.000000 -0.000000  1.232649 )  


     PseudoPot. # 1 for H  read from file:
     /home/cristian/Escritorio/Proyecto_Grafeno/pseudopotenciales/H.pbe-rrkjus.UPF
     MD5 check sum: 7cc9d459525c9a0585f487a71c3c9563
     Pseudo is Ultrasoft, Zval =  1.0
     Generated by new atomic code, or converted to UPF format
     Using radial grid of 1061 points,  2 beta functions with: 
                l(1) =   0
                l(2) =   0
     Q(r) pseudized with 0 coefficients 


     PseudoPot. # 2 for C  read from file:
     /home/cristian/Escritorio/Proyecto_Grafeno/pseudopotenciales/C.pbe-n-rrkjus_psl.1.0.0.UPF
     MD5 check sum: 1fdd950c42eb37d8afe3dd2f8d12311e
     Pseudo is Ultrasoft + core correction, Zval =  4.0
     Generated using "atomic" code by A. Dal Corso v.6.3MaX
     Using radial grid of 1073 points,  4 beta functions with: 
                l(1) =   0
                l(2) =   0
                l(3) =   1
                l(4) =   1
     Q(r) pseudized with 0 coefficients 


     PseudoPot. # 3 for V  read from file:
     /home/cristian/Escritorio/Proyecto_Grafeno/pseudopotenciales/V.pbe-spnl-rrkjus_psl.1.0.0.UPF
     MD5 check sum: 79b3eb63147daf0b665d9f1bcc691206
     Pseudo is Ultrasoft + core correction, Zval = 13.0
     Generated using "atomic" code by A. Dal Corso v.6.2.2
     Using radial grid of 1181 points,  6 beta functions with: 
                l(1) =   0
                l(2) =   0
                l(3) =   1
                l(4) =   1
                l(5) =   2
                l(6) =   2
     Q(r) pseudized with 0 coefficients 


     vdW kernel table read from file rVV10_kernel_table
     MD5 check sum: b8e2538accc0c0b3206b45ba4daaba6c

     atomic species   valence    mass     pseudopotential
        H              1.00     1.00794     H ( 1.00)
        C              4.00    12.01070     C ( 1.00)
        V             13.00    50.94150     V ( 1.00)

     Starting magnetic structure 
     atomic species   magnetization
        H            0.500
        C            0.300
        V            0.800

     No symmetry found


                                    s                        frac. trans.

      isym =  1     identity                                     

 cryst.   s( 1) = (     1          0          0      )
                  (     0          1          0      )
                  (     0          0          1      )

 cart.    s( 1) = (  1.0000000  0.0000000  0.0000000 )
                  (  0.0000000  1.0000000  0.0000000 )
                  (  0.0000000  0.0000000  1.0000000 )


     point group C_1 (1)    
     there are  1 classes
     the character table:

       E    
A      1.00

     the symmetry operations in each class and the name of the first element:

     E        1
          identity                                               

   Cartesian axes

     site n.     atom                  positions (alat units)
         1           H   tau(   1) = (   0.2666667   0.4618802   0.4056306  )
         2           H   tau(   2) = (   0.2666667   0.4618802   0.4666433  )
         3           C   tau(   3) = (   0.0000000   0.0000000   0.0000000  )
         4           C   tau(   4) = (   0.0000000   0.1154701   0.0000000  )
         5           C   tau(   5) = (  -0.1000000   0.1732051   0.0000000  )
         6           C   tau(   6) = (  -0.1000000   0.2886751   0.0000000  )
         7           C   tau(   7) = (  -0.2000000   0.3464102   0.0000000  )
         8           C   tau(   8) = (  -0.2000000   0.4618802   0.0000000  )
         9           C   tau(   9) = (  -0.3000000   0.5196152   0.0000000  )
        10           C   tau(  10) = (  -0.3000000   0.6350853   0.0000000  )
        11           C   tau(  11) = (  -0.4000000   0.6928203   0.0000000  )
        12           C   tau(  12) = (  -0.4000000   0.8082904   0.0000000  )
        13           C   tau(  13) = (   0.2000000   0.0000000   0.0000000  )
        14           C   tau(  14) = (   0.2000000   0.1154701   0.0000000  )
        15           C   tau(  15) = (   0.1000000   0.1732051   0.0000000  )
        16           C   tau(  16) = (   0.1000000   0.2886751   0.0000000  )
        17           C   tau(  17) = (   0.0000000   0.3464102   0.0000000  )
        18           C   tau(  18) = (   0.0000000   0.4618802   0.0000000  )
        19           C   tau(  19) = (  -0.1000000   0.5196152   0.0000000  )
        20           C   tau(  20) = (  -0.1000000   0.6350853   0.0000000  )
        21           C   tau(  21) = (  -0.2000000   0.6928203   0.0000000  )
        22           C   tau(  22) = (  -0.2000000   0.8082904   0.0000000  )
        23           C   tau(  23) = (   0.4000000   0.0000000   0.0000000  )
        24           C   tau(  24) = (   0.4000000   0.1154701   0.0000000  )
        25           C   tau(  25) = (   0.3000000   0.1732051   0.0000000  )
        26           C   tau(  26) = (   0.3000000   0.2886751   0.0000000  )
        27           C   tau(  27) = (   0.2000000   0.3464102   0.0000000  )
        28           V   tau(  28) = (   0.2000000   0.4618802   0.0000000  )
        29           C   tau(  29) = (   0.1000000   0.5196152   0.0000000  )
        30           C   tau(  30) = (   0.1000000   0.6350853   0.0000000  )
        31           C   tau(  31) = (   0.0000000   0.6928203   0.0000000  )
        32           C   tau(  32) = (   0.0000000   0.8082904   0.0000000  )
        33           C   tau(  33) = (   0.6000000   0.0000000   0.0000000  )
        34           C   tau(  34) = (   0.6000000   0.1154701   0.0000000  )
        35           C   tau(  35) = (   0.5000000   0.1732051   0.0000000  )
        36           C   tau(  36) = (   0.5000000   0.2886751   0.0000000  )
        37           C   tau(  37) = (   0.4000000   0.3464102   0.0000000  )
        38           C   tau(  38) = (   0.4000000   0.4618802   0.0000000  )
        39           C   tau(  39) = (   0.3000000   0.5196152   0.0000000  )
        40           C   tau(  40) = (   0.3000000   0.6350853   0.0000000  )
        41           C   tau(  41) = (   0.2000000   0.6928203   0.0000000  )
        42           C   tau(  42) = (   0.2000000   0.8082904   0.0000000  )
        43           C   tau(  43) = (   0.8000000   0.0000000   0.0000000  )
        44           C   tau(  44) = (   0.8000000   0.1154701   0.0000000  )
        45           C   tau(  45) = (   0.7000000   0.1732051   0.0000000  )
        46           C   tau(  46) = (   0.7000000   0.2886751   0.0000000  )
        47           C   tau(  47) = (   0.6000000   0.3464102   0.0000000  )
        48           C   tau(  48) = (   0.6000000   0.4618802   0.0000000  )
        49           C   tau(  49) = (   0.5000000   0.5196152   0.0000000  )
        50           C   tau(  50) = (   0.5000000   0.6350853   0.0000000  )
        51           C   tau(  51) = (   0.4000000   0.6928203   0.0000000  )
        52           C   tau(  52) = (   0.4000000   0.8082904   0.0000000  )

   Crystallographic axes

     site n.     atom                  positions (cryst. coord.)
         1           H   tau(   1) = (  0.5333333  0.5333333  0.5000000  )
         2           H   tau(   2) = (  0.5333333  0.5333333  0.5752072  )
         3           C   tau(   3) = (  0.0000000  0.0000000  0.0000000  )
         4           C   tau(   4) = (  0.0666667  0.1333333  0.0000000  )
         5           C   tau(   5) = (  0.0000000  0.2000000  0.0000000  )
         6           C   tau(   6) = (  0.0666667  0.3333333  0.0000000  )
         7           C   tau(   7) = (  0.0000000  0.4000000  0.0000000  )
         8           C   tau(   8) = (  0.0666667  0.5333333  0.0000000  )
         9           C   tau(   9) = (  0.0000000  0.6000000  0.0000000  )
        10           C   tau(  10) = (  0.0666667  0.7333333  0.0000000  )
        11           C   tau(  11) = (  0.0000000  0.8000000  0.0000000  )
        12           C   tau(  12) = (  0.0666667  0.9333333  0.0000000  )
        13           C   tau(  13) = (  0.2000000  0.0000000  0.0000000  )
        14           C   tau(  14) = (  0.2666667  0.1333333  0.0000000  )
        15           C   tau(  15) = (  0.2000000  0.2000000  0.0000000  )
        16           C   tau(  16) = (  0.2666667  0.3333333  0.0000000  )
        17           C   tau(  17) = (  0.2000000  0.4000000  0.0000000  )
        18           C   tau(  18) = (  0.2666667  0.5333333  0.0000000  )
        19           C   tau(  19) = (  0.2000000  0.6000000  0.0000000  )
        20           C   tau(  20) = (  0.2666667  0.7333333  0.0000000  )
        21           C   tau(  21) = (  0.2000000  0.8000000  0.0000000  )
        22           C   tau(  22) = (  0.2666667  0.9333333  0.0000000  )
        23           C   tau(  23) = (  0.4000000  0.0000000  0.0000000  )
        24           C   tau(  24) = (  0.4666667  0.1333333  0.0000000  )
        25           C   tau(  25) = (  0.4000000  0.2000000  0.0000000  )
        26           C   tau(  26) = (  0.4666667  0.3333333  0.0000000  )
        27           C   tau(  27) = (  0.4000000  0.4000000  0.0000000  )
        28           V   tau(  28) = (  0.4666667  0.5333333  0.0000000  )
        29           C   tau(  29) = (  0.4000000  0.6000000  0.0000000  )
        30           C   tau(  30) = (  0.4666667  0.7333333  0.0000000  )
        31           C   tau(  31) = (  0.4000000  0.8000000  0.0000000  )
        32           C   tau(  32) = (  0.4666667  0.9333333  0.0000000  )
        33           C   tau(  33) = (  0.6000000  0.0000000  0.0000000  )
        34           C   tau(  34) = (  0.6666667  0.1333333  0.0000000  )
        35           C   tau(  35) = (  0.6000000  0.2000000  0.0000000  )
        36           C   tau(  36) = (  0.6666667  0.3333333  0.0000000  )
        37           C   tau(  37) = (  0.6000000  0.4000000  0.0000000  )
        38           C   tau(  38) = (  0.6666667  0.5333333  0.0000000  )
        39           C   tau(  39) = (  0.6000000  0.6000000  0.0000000  )
        40           C   tau(  40) = (  0.6666667  0.7333333  0.0000000  )
        41           C   tau(  41) = (  0.6000000  0.8000000  0.0000000  )
        42           C   tau(  42) = (  0.6666667  0.9333333  0.0000000  )
        43           C   tau(  43) = (  0.8000000  0.0000000  0.0000000  )
        44           C   tau(  44) = (  0.8666667  0.1333333  0.0000000  )
        45           C   tau(  45) = (  0.8000000  0.2000000  0.0000000  )
        46           C   tau(  46) = (  0.8666667  0.3333333  0.0000000  )
        47           C   tau(  47) = (  0.8000000  0.4000000  0.0000000  )
        48           C   tau(  48) = (  0.8666667  0.5333333  0.0000000  )
        49           C   tau(  49) = (  0.8000000  0.6000000  0.0000000  )
        50           C   tau(  50) = (  0.8666667  0.7333333  0.0000000  )
        51           C   tau(  51) = (  0.8000000  0.8000000  0.0000000  )
        52           C   tau(  52) = (  0.8666667  0.9333333  0.0000000  )

     number of k points=     1  Marzari-Vanderbilt smearing, width (Ry)=  0.0010
                       cart. coord. in units 2pi/alat
        k(    1) = (   0.0000000   0.0000000   0.0000000), wk =   1.0000000

                       cryst. coord.
        k(    1) = (   0.0000000   0.0000000   0.0000000), wk =   1.0000000

     Dense  grid:  1626001 G-vectors     FFT dimensions: ( 180, 180, 135)

     Smooth grid:   702581 G-vectors     FFT dimensions: ( 125, 125, 108)

     Dynamical RAM for                 wfc:      28.36 MB

     Dynamical RAM for     wfc (w. buffer):      85.09 MB

     Dynamical RAM for           str. fact:      12.41 MB

     Dynamical RAM for           local pot:       0.00 MB

     Dynamical RAM for          nlocal pot:      92.46 MB

     Dynamical RAM for                qrad:      19.73 MB

     Dynamical RAM for          rho,v,vnew:      58.92 MB

     Dynamical RAM for               rhoin:      19.64 MB

     Dynamical RAM for            rho*nmix:     132.32 MB

     Dynamical RAM for           G-vectors:      16.40 MB

     Dynamical RAM for          h,s,v(r/c):      11.81 MB

     Dynamical RAM for          <psi|beta>:       0.80 MB

     Dynamical RAM for                 psi:     113.46 MB

     Dynamical RAM for                hpsi:     113.46 MB

     Dynamical RAM for                spsi:     113.46 MB

     Dynamical RAM for      wfcinit/wfcrot:      93.90 MB

     Dynamical RAM for           addusdens:     975.89 MB

     Estimated static dynamical RAM per process >     487.63 MB

     Estimated max dynamical RAM per process >       1.43 GB

     Estimated total dynamical RAM >       8.58 GB
     Generating pointlists ...
     new r_m :   0.0252 (alat units)  0.5862 (a.u.) for type    1
     new r_m :   0.0476 (alat units)  1.1095 (a.u.) for type    2
     new r_m :   0.0476 (alat units)  1.1095 (a.u.) for type    3

     Check: negative core charge=   -0.000002

     Initial potential from superposition of free atoms

     starting charge  210.80465, renormalised to  211.00000

     negative rho (up, down):  1.134E-04 1.291E-02


---------------------------------------------------------------------------------
Carrying out rVV10 run using the following parameters:
Nqs =      20    Nr_points =    1024   r_max =   100.000
b_value =  6.30000    beta =  0.00901
     q_mesh =  0.00010000  0.00030000  0.00058939  0.00100810
               0.00161396  0.00249058  0.00375900  0.00559430
               0.00824984  0.01209221  0.01765183  0.02569619
               0.03733578  0.05417739  0.07854596  0.11380545
               0.16482331  0.23864234  0.34545298  0.50000000

Gradients computed in Reciprocal space

---------------------------------------------------------------------------------


     Starting wfcs are  208 randomized atomic wfcs

     total cpu time spent up to now is       86.4 secs

     Self-consistent Calculation

     iteration #  1     ecut=    70.00 Ry     beta= 0.70
     Davidson diagonalization with overlap
     ethr =  1.00E-02,  avg # of iterations =  3.0

     negative rho (up, down):  2.041E-04 1.066E-02

     total cpu time spent up to now is      248.6 secs

     total energy              =    -753.61480267 Ry
     Harris-Foulkes estimate   =    -756.86070302 Ry
     estimated scf accuracy    <      11.00047726 Ry

     total magnetization       =     5.00 Bohr mag/cell
     absolute magnetization    =     6.00 Bohr mag/cell

     iteration #  2     ecut=    70.00 Ry     beta= 0.70
     Davidson diagonalization with overlap
     ethr =  5.21E-03,  avg # of iterations =  6.5

     negative rho (up, down):  2.311E-03 1.543E-01

     total cpu time spent up to now is      389.7 secs

     total energy              =    -747.34910151 Ry
     Harris-Foulkes estimate   =    -765.64671618 Ry
     estimated scf accuracy    <      63.05267233 Ry

     total magnetization       =     3.00 Bohr mag/cell
     absolute magnetization    =     3.35 Bohr mag/cell

     iteration #  3     ecut=    70.00 Ry     beta= 0.70
     Davidson diagonalization with overlap
     ethr =  5.21E-03,  avg # of iterations =  5.5

     negative rho (up, down):  1.196E-03 2.160E-02

     total cpu time spent up to now is      597.3 secs

     total energy              =    -755.75794881 Ry
     Harris-Foulkes estimate   =    -758.32146050 Ry
     estimated scf accuracy    <      12.31380208 Ry

     total magnetization       =     5.00 Bohr mag/cell
     absolute magnetization    =     5.78 Bohr mag/cell

     iteration #  4     ecut=    70.00 Ry     beta= 0.70
     Davidson diagonalization with overlap
     ethr =  5.21E-03,  avg # of iterations =  3.5

     negative rho (up, down):  3.927E-02 1.922E-02

     total cpu time spent up to now is      707.3 secs

     total energy              =    -757.09940493 Ry
     Harris-Foulkes estimate   =    -757.47383977 Ry
     estimated scf accuracy    <       1.14465140 Ry

     total magnetization       =     1.00 Bohr mag/cell
     absolute magnetization    =     1.72 Bohr mag/cell

     iteration #  5     ecut=    70.00 Ry     beta= 0.70
     Davidson diagonalization with overlap
     ethr =  5.42E-04,  avg # of iterations =  8.5

     negative rho (up, down):  3.852E-02 1.691E-02

     total cpu time spent up to now is      834.3 secs

     total energy              =    -757.24635814 Ry
     Harris-Foulkes estimate   =    -757.29371361 Ry
     estimated scf accuracy    <       0.18382770 Ry

     total magnetization       =     1.00 Bohr mag/cell
     absolute magnetization    =     1.50 Bohr mag/cell

     iteration #  6     ecut=    70.00 Ry     beta= 0.70
     Davidson diagonalization with overlap
     ethr =  8.71E-05,  avg # of iterations =  7.0

     negative rho (up, down):  3.035E-02 1.570E-02

     total cpu time spent up to now is      973.3 secs

     total energy              =    -757.27273573 Ry
     Harris-Foulkes estimate   =    -757.34736503 Ry
     estimated scf accuracy    <       0.32292022 Ry

     total magnetization       =     1.00 Bohr mag/cell
     absolute magnetization    =     1.40 Bohr mag/cell

     iteration #  7     ecut=    70.00 Ry     beta= 0.70
     Davidson diagonalization with overlap
     ethr =  8.71E-05,  avg # of iterations =  5.5

     negative rho (up, down):  3.135E-02 1.220E-02

     total cpu time spent up to now is     1097.1 secs

     total energy              =    -757.31417729 Ry
     Harris-Foulkes estimate   =    -757.32202578 Ry
     estimated scf accuracy    <       0.04209274 Ry

     total magnetization       =     1.00 Bohr mag/cell
     absolute magnetization    =     1.37 Bohr mag/cell

     iteration #  8     ecut=    70.00 Ry     beta= 0.70
     Davidson diagonalization with overlap
     ethr =  1.99E-05,  avg # of iterations =  5.5

     negative rho (up, down):  3.155E-02 1.915E-02

     total cpu time spent up to now is     1230.4 secs

     total energy              =    -757.31953899 Ry
     Harris-Foulkes estimate   =    -757.33138760 Ry
     estimated scf accuracy    <       0.05944907 Ry

     total magnetization       =     1.00 Bohr mag/cell
     absolute magnetization    =     1.36 Bohr mag/cell

     iteration #  9     ecut=    70.00 Ry     beta= 0.70
     Davidson diagonalization with overlap
     ethr =  1.99E-05,  avg # of iterations =  3.0

     negative rho (up, down):  3.349E-02 1.940E-02

     total cpu time spent up to now is     1349.7 secs

     total energy              =    -757.32466670 Ry
     Harris-Foulkes estimate   =    -757.32998526 Ry
     estimated scf accuracy    <       0.03320405 Ry

     total magnetization       =     1.00 Bohr mag/cell
     absolute magnetization    =     1.39 Bohr mag/cell

     iteration # 10     ecut=    70.00 Ry     beta= 0.70
     Davidson diagonalization with overlap
     ethr =  1.57E-05,  avg # of iterations =  3.0

     negative rho (up, down):  3.435E-02 1.562E-02

     total cpu time spent up to now is     1456.8 secs

     total energy              =    -757.32734303 Ry
     Harris-Foulkes estimate   =    -757.32742179 Ry
     estimated scf accuracy    <       0.00428399 Ry

     total magnetization       =     1.00 Bohr mag/cell
     absolute magnetization    =     1.40 Bohr mag/cell

     iteration # 11     ecut=    70.00 Ry     beta= 0.70
     Davidson diagonalization with overlap
     ethr =  2.03E-06,  avg # of iterations =  4.0

     negative rho (up, down):  3.295E-02 1.449E-02

     total cpu time spent up to now is     1585.7 secs

     total energy              =    -757.32913400 Ry
     Harris-Foulkes estimate   =    -757.32784323 Ry
     estimated scf accuracy    <       0.00115565 Ry

     total magnetization       =     1.00 Bohr mag/cell
     absolute magnetization    =     1.42 Bohr mag/cell

     iteration # 12     ecut=    70.00 Ry     beta= 0.70
     Davidson diagonalization with overlap
     ethr =  5.48E-07,  avg # of iterations =  3.5

     negative rho (up, down):  3.322E-02 7.525E-03

     total cpu time spent up to now is     1708.7 secs

     total energy              =    -757.32965566 Ry
     Harris-Foulkes estimate   =    -757.32937453 Ry
     estimated scf accuracy    <       0.00129426 Ry

     total magnetization       =     1.00 Bohr mag/cell
     absolute magnetization    =     1.45 Bohr mag/cell

     iteration # 13     ecut=    70.00 Ry     beta= 0.70
     Davidson diagonalization with overlap
     ethr =  5.48E-07,  avg # of iterations =  2.0

     negative rho (up, down):  3.348E-02 7.442E-03

     total cpu time spent up to now is     1819.3 secs

     total energy              =    -757.32972290 Ry
     Harris-Foulkes estimate   =    -757.32975814 Ry
     estimated scf accuracy    <       0.00017065 Ry

     total magnetization       =     1.00 Bohr mag/cell
     absolute magnetization    =     1.46 Bohr mag/cell

     iteration # 14     ecut=    70.00 Ry     beta= 0.70
     Davidson diagonalization with overlap
     ethr =  8.09E-08,  avg # of iterations =  3.0

     negative rho (up, down):  3.382E-02 2.872E-03

     total cpu time spent up to now is     1940.1 secs

     total energy              =    -757.32979647 Ry
     Harris-Foulkes estimate   =    -757.32975654 Ry
     estimated scf accuracy    <       0.00007238 Ry

     total magnetization       =     1.00 Bohr mag/cell
     absolute magnetization    =     1.48 Bohr mag/cell

     iteration # 15     ecut=    70.00 Ry     beta= 0.70
     Davidson diagonalization with overlap
     ethr =  3.43E-08,  avg # of iterations =  3.0

     negative rho (up, down):  3.386E-02 2.221E-03

     total cpu time spent up to now is     2070.2 secs

     total energy              =    -757.32981408 Ry
     Harris-Foulkes estimate   =    -757.32981451 Ry
     estimated scf accuracy    <       0.00005313 Ry

     total magnetization       =     1.00 Bohr mag/cell
     absolute magnetization    =     1.49 Bohr mag/cell

     iteration # 16     ecut=    70.00 Ry     beta= 0.70
     Davidson diagonalization with overlap
     ethr =  2.52E-08,  avg # of iterations =  2.5

     negative rho (up, down):  3.392E-02 2.658E-03

     total cpu time spent up to now is     2192.0 secs

     total energy              =    -757.32981743 Ry
     Harris-Foulkes estimate   =    -757.32982005 Ry
     estimated scf accuracy    <       0.00007700 Ry

     total magnetization       =     1.00 Bohr mag/cell
     absolute magnetization    =     1.50 Bohr mag/cell

     iteration # 17     ecut=    70.00 Ry     beta= 0.70
     Davidson diagonalization with overlap
     ethr =  2.52E-08,  avg # of iterations =  1.0

     negative rho (up, down):  3.384E-02 2.014E-03

     total cpu time spent up to now is     2304.2 secs

     total energy              =    -757.32981873 Ry
     Harris-Foulkes estimate   =    -757.32981890 Ry
     estimated scf accuracy    <       0.00005164 Ry

     total magnetization       =     1.00 Bohr mag/cell
     absolute magnetization    =     1.50 Bohr mag/cell

     iteration # 18     ecut=    70.00 Ry     beta= 0.70
     Davidson diagonalization with overlap
     ethr =  2.45E-08,  avg # of iterations =  1.5

     negative rho (up, down):  3.387E-02 1.686E-03

     total cpu time spent up to now is     2418.3 secs

     total energy              =    -757.32982111 Ry
     Harris-Foulkes estimate   =    -757.32982039 Ry
     estimated scf accuracy    <       0.00004061 Ry

     total magnetization       =     1.00 Bohr mag/cell
     absolute magnetization    =     1.50 Bohr mag/cell

     iteration # 19     ecut=    70.00 Ry     beta= 0.70
     Davidson diagonalization with overlap
     ethr =  1.92E-08,  avg # of iterations =  1.0

     negative rho (up, down):  3.393E-02 2.312E-03

     total cpu time spent up to now is     2534.2 secs

     total energy              =    -757.32982165 Ry
     Harris-Foulkes estimate   =    -757.32982396 Ry
     estimated scf accuracy    <       0.00004773 Ry

     total magnetization       =     1.00 Bohr mag/cell
     absolute magnetization    =     1.51 Bohr mag/cell

     iteration # 20     ecut=    70.00 Ry     beta= 0.70
     Davidson diagonalization with overlap
     ethr =  1.92E-08,  avg # of iterations =  1.0

     negative rho (up, down):  3.386E-02 1.852E-03

     total cpu time spent up to now is     2650.5 secs

     total energy              =    -757.32982502 Ry
     Harris-Foulkes estimate   =    -757.32982361 Ry
     estimated scf accuracy    <       0.00005061 Ry

     total magnetization       =     1.00 Bohr mag/cell
     absolute magnetization    =     1.52 Bohr mag/cell

     iteration # 21     ecut=    70.00 Ry     beta= 0.70
     Davidson diagonalization with overlap
     ethr =  1.92E-08,  avg # of iterations =  1.0

     negative rho (up, down):  3.398E-02 2.692E-03

     total cpu time spent up to now is     2761.6 secs

     total energy              =    -757.32981144 Ry
     Harris-Foulkes estimate   =    -757.32982530 Ry
     estimated scf accuracy    <       0.00003219 Ry

     total magnetization       =     1.00 Bohr mag/cell
     absolute magnetization    =     1.52 Bohr mag/cell

     iteration # 22     ecut=    70.00 Ry     beta= 0.70
     Davidson diagonalization with overlap
     ethr =  1.53E-08,  avg # of iterations =  3.0

     negative rho (up, down):  3.387E-02 1.902E-03

     total cpu time spent up to now is     2882.3 secs

     total energy              =    -757.32982857 Ry
     Harris-Foulkes estimate   =    -757.32981855 Ry
     estimated scf accuracy    <       0.00002156 Ry

     total magnetization       =     1.00 Bohr mag/cell
     absolute magnetization    =     1.54 Bohr mag/cell

     iteration # 23     ecut=    70.00 Ry     beta= 0.70
     Davidson diagonalization with overlap
     ethr =  1.02E-08,  avg # of iterations =  1.5

     negative rho (up, down):  3.387E-02 2.038E-03

     total cpu time spent up to now is     2993.3 secs

     total energy              =    -757.32982805 Ry
     Harris-Foulkes estimate   =    -757.32982965 Ry
     estimated scf accuracy    <       0.00004057 Ry

     total magnetization       =     1.00 Bohr mag/cell
     absolute magnetization    =     1.54 Bohr mag/cell

     iteration # 24     ecut=    70.00 Ry     beta= 0.70
     Davidson diagonalization with overlap
     ethr =  1.02E-08,  avg # of iterations =  2.0

     negative rho (up, down):  3.387E-02 2.090E-03

     total cpu time spent up to now is     3108.9 secs

     total energy              =    -757.32982917 Ry
     Harris-Foulkes estimate   =    -757.32982963 Ry
     estimated scf accuracy    <       0.00001698 Ry

     total magnetization       =     1.00 Bohr mag/cell
     absolute magnetization    =     1.54 Bohr mag/cell

     iteration # 25     ecut=    70.00 Ry     beta= 0.70
     Davidson diagonalization with overlap
     ethr =  8.05E-09,  avg # of iterations =  1.5

     negative rho (up, down):  3.387E-02 2.092E-03

     total cpu time spent up to now is     3223.3 secs

     total energy              =    -757.32982884 Ry
     Harris-Foulkes estimate   =    -757.32982973 Ry
     estimated scf accuracy    <       0.00000902 Ry

     total magnetization       =     1.00 Bohr mag/cell
     absolute magnetization    =     1.55 Bohr mag/cell

     iteration # 26     ecut=    70.00 Ry     beta= 0.70
     Davidson diagonalization with overlap
     ethr =  4.28E-09,  avg # of iterations =  3.0

     negative rho (up, down):  3.387E-02 1.946E-03

     total cpu time spent up to now is     3343.9 secs

     total energy              =    -757.32983008 Ry
     Harris-Foulkes estimate   =    -757.32982993 Ry
     estimated scf accuracy    <       0.00000257 Ry

     total magnetization       =     1.00 Bohr mag/cell
     absolute magnetization    =     1.55 Bohr mag/cell

     iteration # 27     ecut=    70.00 Ry     beta= 0.70
     Davidson diagonalization with overlap
     ethr =  1.22E-09,  avg # of iterations =  2.5

     negative rho (up, down):  3.387E-02 1.814E-03

     total cpu time spent up to now is     3461.4 secs

     total energy              =    -757.32983021 Ry
     Harris-Foulkes estimate   =    -757.32983026 Ry
     estimated scf accuracy    <       0.00000456 Ry

     total magnetization       =     1.00 Bohr mag/cell
     absolute magnetization    =     1.55 Bohr mag/cell

     iteration # 28     ecut=    70.00 Ry     beta= 0.70
     Davidson diagonalization with overlap
     ethr =  1.22E-09,  avg # of iterations =  2.0

     negative rho (up, down):  3.387E-02 1.804E-03

     total cpu time spent up to now is     3574.6 secs

     total energy              =    -757.32982995 Ry
     Harris-Foulkes estimate   =    -757.32983055 Ry
     estimated scf accuracy    <       0.00000289 Ry

     total magnetization       =     1.00 Bohr mag/cell
     absolute magnetization    =     1.55 Bohr mag/cell

     iteration # 29     ecut=    70.00 Ry     beta= 0.70
     Davidson diagonalization with overlap
     ethr =  1.22E-09,  avg # of iterations =  3.0

     negative rho (up, down):  3.388E-02 1.637E-03

     total cpu time spent up to now is     3704.3 secs

     total energy              =    -757.32983072 Ry
     Harris-Foulkes estimate   =    -757.32983089 Ry
     estimated scf accuracy    <       0.00000607 Ry

     total magnetization       =     1.00 Bohr mag/cell
     absolute magnetization    =     1.55 Bohr mag/cell

     iteration # 30     ecut=    70.00 Ry     beta= 0.70
     Davidson diagonalization with overlap
     ethr =  1.22E-09,  avg # of iterations =  1.0

     negative rho (up, down):  3.388E-02 1.614E-03

     Magnetic moment per site:
     atom:    1    charge:    0.2114    magn:   -0.0000    constr:    0.0000
     atom:    2    charge:    0.2113    magn:    0.0000    constr:    0.0000
     atom:    3    charge:    1.7177    magn:   -0.0068    constr:    0.0000
     atom:    4    charge:    1.7156    magn:    0.0093    constr:    0.0000
     atom:    5    charge:    1.7183    magn:   -0.0042    constr:    0.0000
     atom:    6    charge:    1.7141    magn:    0.0027    constr:    0.0000
     atom:    7    charge:    1.7182    magn:   -0.0042    constr:    0.0000
     atom:    8    charge:    1.7157    magn:    0.0094    constr:    0.0000
     atom:    9    charge:    1.7176    magn:   -0.0069    constr:    0.0000
     atom:   10    charge:    1.7144    magn:    0.0309    constr:    0.0000
     atom:   11    charge:    1.7186    magn:   -0.0090    constr:    0.0000
     atom:   12    charge:    1.7142    magn:    0.0304    constr:    0.0000
     atom:   13    charge:    1.7186    magn:   -0.0090    constr:    0.0000
     atom:   14    charge:    1.7145    magn:    0.0232    constr:    0.0000
     atom:   15    charge:    1.7169    magn:   -0.0079    constr:    0.0000
     atom:   16    charge:    1.7109    magn:    0.0292    constr:    0.0000
     atom:   17    charge:    1.7270    magn:   -0.0052    constr:    0.0000
     atom:   18    charge:    1.7109    magn:    0.0291    constr:    0.0000
     atom:   19    charge:    1.7169    magn:   -0.0078    constr:    0.0000
     atom:   20    charge:    1.7143    magn:    0.0228    constr:    0.0000
     atom:   21    charge:    1.7186    magn:   -0.0090    constr:    0.0000
     atom:   22    charge:    1.7146    magn:    0.0316    constr:    0.0000
     atom:   23    charge:    1.7176    magn:   -0.0069    constr:    0.0000
     atom:   24    charge:    1.7157    magn:    0.0095    constr:    0.0000
     atom:   25    charge:    1.7169    magn:   -0.0080    constr:    0.0000
     atom:   26    charge:    1.7113    magn:    0.0303    constr:    0.0000
     atom:   27    charge:    1.9148    magn:   -0.0004    constr:    0.0000
     atom:   28    charge:    7.8615    magn:    0.1021    constr:    0.0000
     atom:   29    charge:    1.9148    magn:   -0.0005    constr:    0.0000
     atom:   30    charge:    1.7110    magn:    0.0297    constr:    0.0000
     atom:   31    charge:    1.7169    magn:   -0.0079    constr:    0.0000
     atom:   32    charge:    1.7157    magn:    0.0096    constr:    0.0000
     atom:   33    charge:    1.7182    magn:   -0.0042    constr:    0.0000
     atom:   34    charge:    1.7138    magn:    0.0070    constr:    0.0000
     atom:   35    charge:    1.7182    magn:   -0.0043    constr:    0.0000
     atom:   36    charge:    1.7141    magn:    0.0027    constr:    0.0000
     atom:   37    charge:    1.7270    magn:   -0.0054    constr:    0.0000
     atom:   38    charge:    1.7113    magn:    0.0304    constr:    0.0000
     atom:   39    charge:    1.9149    magn:   -0.0003    constr:    0.0000
     atom:   40    charge:    1.7111    magn:    0.0299    constr:    0.0000
     atom:   41    charge:    1.7270    magn:   -0.0053    constr:    0.0000
     atom:   42    charge:    1.7141    magn:    0.0027    constr:    0.0000
     atom:   43    charge:    1.7183    magn:   -0.0042    constr:    0.0000
     atom:   44    charge:    1.7138    magn:    0.0068    constr:    0.0000
     atom:   45    charge:    1.7244    magn:   -0.0031    constr:    0.0000
     atom:   46    charge:    1.7138    magn:    0.0069    constr:    0.0000
     atom:   47    charge:    1.7183    magn:   -0.0042    constr:    0.0000
     atom:   48    charge:    1.7157    magn:    0.0094    constr:    0.0000
     atom:   49    charge:    1.7169    magn:   -0.0080    constr:    0.0000
     atom:   50    charge:    1.7146    magn:    0.0236    constr:    0.0000
     atom:   51    charge:    1.7169    magn:   -0.0080    constr:    0.0000
     atom:   52    charge:    1.7156    magn:    0.0093    constr:    0.0000

     total cpu time spent up to now is     3817.3 secs

     End of self-consistent calculation

 ------ SPIN UP ------------


          k = 0.0000 0.0000 0.0000 ( 87777 PWs)   bands (ev):

   -62.8584 -37.9430 -37.9418 -36.6262 -19.6452 -18.8028 -18.8017 -18.7322
   -18.6872 -18.6868 -18.2530 -16.9472 -16.9468 -16.9466 -16.8106 -16.8101
   -16.5271 -16.0941 -16.0940 -15.9999 -15.8456 -15.8454 -15.0946 -13.9064
   -13.9006 -13.9000 -13.8724 -13.8724 -13.1450 -12.9284 -12.9282 -12.9102
   -12.5170 -12.5169 -12.1237 -11.6569 -11.6568 -11.5321 -11.1509 -11.1508
   -10.1620  -9.3498  -9.3495  -9.2694  -9.1935  -9.1933  -9.1030  -9.0783
    -9.0783  -9.0622  -8.4745  -8.4744  -7.9058  -7.9056  -7.8707  -7.8112
    -7.6884  -7.2647  -7.2643  -6.9735  -6.9730  -6.9083  -6.7181  -6.7102
    -6.7083  -6.7071  -6.6030  -6.6029  -6.5567  -6.4457  -6.4453  -6.4012
    -6.3966  -6.3963  -6.3442  -6.3261  -5.2708  -5.2704  -5.1687  -5.1680
    -4.9564  -4.9563  -4.8454  -4.7570  -4.6297  -4.6186  -4.6182  -4.2541
    -3.9957  -3.9956  -3.7696  -3.7694  -3.6693  -3.6453  -3.5093  -3.5091
    -2.9104  -2.2708  -2.2705  -2.2376  -2.2372  -1.7586  -1.6914  -1.6913
    -0.5541  -0.2520  -0.2515   0.8343   1.0388   1.0711   1.0712   1.7789
     2.0402   2.0404   2.5989   2.8862   2.8864   2.9644   3.3851   3.4969
     3.5172   3.7383   3.7499   3.7855   3.8559   3.9917   3.9920

     occupation numbers 
     1.0000   1.0000   1.0000   1.0000   1.0000   1.0000   1.0000   1.0000
     1.0000   1.0000   1.0000   1.0000   1.0000   1.0000   1.0000   1.0000
     1.0000   1.0000   1.0000   1.0000   1.0000   1.0000   1.0000   1.0000
     1.0000   1.0000   1.0000   1.0000   1.0000   1.0000   1.0000   1.0000
     1.0000   1.0000   1.0000   1.0000   1.0000   1.0000   1.0000   1.0000
     1.0000   1.0000   1.0000   1.0000   1.0000   1.0000   1.0000   1.0000
     1.0000   1.0000   1.0000   1.0000   1.0000   1.0000   1.0000   1.0000
     1.0000   1.0000   1.0000   1.0000   1.0000   1.0000   1.0000   1.0000
     1.0000   1.0000   1.0000   1.0000   1.0000   1.0000   1.0000   1.0000
     1.0000   1.0000   1.0000   1.0000   1.0000   1.0000   1.0000   1.0000
     1.0000   1.0000   1.0000   1.0000   1.0000   1.0000   1.0000   1.0000
     1.0000   1.0000   1.0000   1.0000   1.0000   1.0000   1.0000   1.0000
     1.0000   1.0000   1.0000   1.0000   1.0000   1.0000   1.0000   1.0000
     1.0000   0.5131   0.4869   0.0000   0.0000   0.0000   0.0000   0.0000
     0.0000   0.0000   0.0000   0.0000   0.0000   0.0000   0.0000   0.0000
     0.0000   0.0000   0.0000   0.0000   0.0000   0.0000   0.0000

 ------ SPIN DOWN ----------


          k = 0.0000 0.0000 0.0000 ( 87777 PWs)   bands (ev):

   -62.6613 -37.7821 -37.7775 -36.3566 -19.6233 -18.7812 -18.7798 -18.7119
   -18.6707 -18.6701 -18.2210 -16.9307 -16.9282 -16.9277 -16.7824 -16.7815
   -16.5129 -16.0670 -16.0668 -15.9841 -15.8245 -15.8243 -15.0798 -13.8695
   -13.8691 -13.8690 -13.8597 -13.8586 -13.1483 -12.9178 -12.9175 -12.8947
   -12.5089 -12.5087 -12.1053 -11.6391 -11.6391 -11.5189 -11.1385 -11.1384
   -10.1474  -9.3328  -9.3325  -9.2564  -9.1761  -9.1758  -9.0950  -9.0643
    -9.0641  -9.0530  -8.4678  -8.4676  -7.8944  -7.8940  -7.8637  -7.7589
    -7.6800  -7.2559  -7.2555  -6.8956  -6.8951  -6.8878  -6.7129  -6.6764
    -6.6756  -6.6602  -6.5917  -6.5916  -6.5471  -6.4361  -6.4356  -6.3954
    -6.3900  -6.3898  -6.3361  -6.2489  -5.2626  -5.2621  -5.0837  -5.0829
    -4.9465  -4.9464  -4.8395  -4.7511  -4.5877  -4.5676  -4.5668  -4.2163
    -3.9447  -3.9438  -3.6954  -3.6950  -3.6229  -3.6153  -3.5028  -3.5025
    -2.8772  -2.2034  -2.2027  -2.1720  -2.1711  -1.6758  -1.6757  -1.6640
    -0.5486  -0.0260  -0.0220   0.9110   1.0923   1.0924   1.1160   1.8509
     2.1102   2.1113   2.6062   2.9576   2.9578   3.0052   3.4097   3.5029
     3.5234   3.7406   3.7519   3.7899   3.8947   4.0629   4.0640

     occupation numbers 
     1.0000   1.0000   1.0000   1.0000   1.0000   1.0000   1.0000   1.0000
     1.0000   1.0000   1.0000   1.0000   1.0000   1.0000   1.0000   1.0000
     1.0000   1.0000   1.0000   1.0000   1.0000   1.0000   1.0000   1.0000
     1.0000   1.0000   1.0000   1.0000   1.0000   1.0000   1.0000   1.0000
     1.0000   1.0000   1.0000   1.0000   1.0000   1.0000   1.0000   1.0000
     1.0000   1.0000   1.0000   1.0000   1.0000   1.0000   1.0000   1.0000
     1.0000   1.0000   1.0000   1.0000   1.0000   1.0000   1.0000   1.0000
     1.0000   1.0000   1.0000   1.0000   1.0000   1.0000   1.0000   1.0000
     1.0000   1.0000   1.0000   1.0000   1.0000   1.0000   1.0000   1.0000
     1.0000   1.0000   1.0000   1.0000   1.0000   1.0000   1.0000   1.0000
     1.0000   1.0000   1.0000   1.0000   1.0000   1.0000   1.0000   1.0000
     1.0000   1.0000   1.0000   1.0000   1.0000   1.0000   1.0000   1.0000
     1.0000   1.0000   1.0000   1.0000   1.0000   1.0000   1.0000   1.0000
     1.0000   0.0000   0.0000   0.0000   0.0000   0.0000   0.0000   0.0000
     0.0000   0.0000   0.0000   0.0000   0.0000   0.0000   0.0000   0.0000
     0.0000   0.0000   0.0000   0.0000   0.0000   0.0000   0.0000

     the Fermi energy is    -0.2498 ev

!    total energy              =    -757.32983054 Ry
     Harris-Foulkes estimate   =    -757.32983101 Ry
     estimated scf accuracy    <       0.00000090 Ry

     The total energy is the sum of the following terms:

     one-electron contribution =   -2568.09348413 Ry
     hartree contribution      =    1330.80253479 Ry
     xc contribution           =    -252.66354252 Ry
     ewald contribution        =     732.62498926 Ry
     smearing contrib. (-TS)   =      -0.00032795 Ry

     total magnetization       =     1.00 Bohr mag/cell
     absolute magnetization    =     1.54 Bohr mag/cell

     convergence has been achieved in  30 iterations

     Writing output data file gr-12-baricentro.save/

     init_run     :     83.50s CPU     85.24s WALL (       1 calls)
     electrons    :   3660.83s CPU   3731.04s WALL (       1 calls)

     Called by init_run:
     wfcinit      :     51.29s CPU     51.69s WALL (       1 calls)
     wfcinit:atom :      0.07s CPU      0.11s WALL (       2 calls)
     wfcinit:wfcr :     50.84s CPU     51.13s WALL (       2 calls)
     potinit      :     13.49s CPU     14.06s WALL (       1 calls)
     hinit0       :      7.65s CPU      7.69s WALL (       1 calls)

     Called by electrons:
     c_bands      :   2318.68s CPU   2333.10s WALL (      30 calls)
     sum_band     :    797.78s CPU    820.97s WALL (      30 calls)
     v_of_rho     :    260.45s CPU    273.75s WALL (      31 calls)
     v_h          :      2.87s CPU      2.95s WALL (      31 calls)
     v_xc         :    257.58s CPU    270.80s WALL (      31 calls)
     newd         :    277.54s CPU    297.40s WALL (      31 calls)
     mix_rho      :     16.27s CPU     16.59s WALL (      30 calls)

     Called by c_bands:
     init_us_2    :      6.76s CPU      6.82s WALL (     122 calls)
     cegterg      :   2302.28s CPU   2316.58s WALL (      60 calls)

     Called by sum_band:
     sum_band:bec :      0.05s CPU      0.05s WALL (      60 calls)
     addusdens    :    507.43s CPU    528.31s WALL (      30 calls)

     Called by *egterg:
     h_psi        :   1228.80s CPU   1239.01s WALL (     250 calls)
     s_psi        :    401.17s CPU    401.48s WALL (     250 calls)
     g_psi        :      1.18s CPU      1.18s WALL (     188 calls)
     cdiaghg      :     19.22s CPU     19.23s WALL (     248 calls)
     cegterg:over :    279.03s CPU    279.22s WALL (     188 calls)
     cegterg:upda :    171.42s CPU    172.61s WALL (     188 calls)
     cegterg:last :    126.90s CPU    126.98s WALL (      61 calls)

     Called by h_psi:
     h_psi:pot    :   1227.53s CPU   1236.15s WALL (     250 calls)
     h_psi:calbec :    401.39s CPU    401.69s WALL (     250 calls)
     vloc_psi     :    424.45s CPU    432.53s WALL (     250 calls)
     add_vuspsi   :    401.68s CPU    401.93s WALL (     250 calls)

     General routines
     calbec       :    576.05s CPU    576.49s WALL (     310 calls)
     fft          :    150.99s CPU    156.16s WALL (    2319 calls)
     ffts         :      2.83s CPU      2.94s WALL (     122 calls)
     fftw         :    449.35s CPU    458.23s WALL (   43368 calls)
     interpolate  :      6.47s CPU      6.70s WALL (      62 calls)

     Parallel routines
     fft_scatt_xy :    118.18s CPU    119.57s WALL (   45809 calls)
     fft_scatt_yz :    180.32s CPU    190.52s WALL (   45809 calls)

     PWSCF        :      1h 2m CPU      1h 3m WALL


   This run was terminated on:  19: 5:37  23Aug2022            

=------------------------------------------------------------------------------=
   JOB DONE.
=------------------------------------------------------------------------------=
