
     Program PWSCF v.6.4.1 starts on 18Jun2022 at 12:24:47 

     This program is part of the open-source Quantum ESPRESSO suite
     for quantum simulation of materials; please cite
         "P. Giannozzi et al., J. Phys.:Condens. Matter 21 395502 (2009);
         "P. Giannozzi et al., J. Phys.:Condens. Matter 29 465901 (2017);
          URL http://www.quantum-espresso.org", 
     in publications or presentations arising from this work. More details at
     http://www.quantum-espresso.org/quote

     Parallel version (MPI), running on     5 processors

     MPI processes distributed on     1 nodes
     R & G space division:  proc/nbgrp/npool/nimage =       5
     Reading input from distance-2.8.in

     Current dimensions of program PWSCF are:
     Max number of different atomic species (ntypx) = 10
     Max number of k-points (npk) =  40000
     Max angular momentum in pseudopotentials (lmaxx) =  3

     IMPORTANT: XC functional enforced from input :
     Exchange-correlation      = RVV10 ( 1  4 13  4 3 0)
     Any further DFT definition will be discarded
     Please, verify this is what you really want

               file H.pbe-rrkjus.UPF: wavefunction(s)  1S renormalized
               file H.pbe-rrkjus.UPF: wavefunction(s)  1S renormalized

     Subspace diagonalization in iterative solution of the eigenvalue problem:
     a serial algorithm will be used


     Parallelization info
     --------------------
     sticks:   dense  smooth     PW     G-vecs:    dense   smooth      PW
     Min        3662    2095    542               487826   210779   27834
     Max        3663    2096    543               487829   210784   27841
     Sum       18313   10477   2713              2439139  1053907  139193



     bravais-lattice index     =            4
     lattice parameter (alat)  =      23.2937  a.u.
     unit-cell volume          =   13319.7822 (a.u.)^3
     number of atoms/cell      =           52
     number of atomic types    =            3
     number of electrons       =       202.00
     number of Kohn-Sham states=          121
     kinetic-energy cutoff     =      70.0000  Ry
     charge density cutoff     =     490.0000  Ry
     convergence threshold     =      1.0E-06
     mixing beta               =       0.7000
     number of iterations used =            8  plain     mixing
     Exchange-correlation      = RVV10 ( 1  4 13  4 3 0)

     celldm(1)=  23.293684  celldm(2)=   0.000000  celldm(3)=   1.216892
     celldm(4)=   0.000000  celldm(5)=   0.000000  celldm(6)=   0.000000

     crystal axes: (cart. coord. in units of alat)
               a(1) = (   1.000000   0.000000   0.000000 )  
               a(2) = (  -0.500000   0.866025   0.000000 )  
               a(3) = (   0.000000   0.000000   1.216892 )  

     reciprocal axes: (cart. coord. in units 2 pi/alat)
               b(1) = (  1.000000  0.577350 -0.000000 )  
               b(2) = (  0.000000  1.154701  0.000000 )  
               b(3) = (  0.000000 -0.000000  0.821766 )  


     PseudoPot. # 1 for H  read from file:
     /home/cristian/Escritorio/Proyecto_Grafeno/pseudopotenciales/H.pbe-rrkjus.UPF
     MD5 check sum: 7cc9d459525c9a0585f487a71c3c9563
     Pseudo is Ultrasoft, Zval =  1.0
     Generated by new atomic code, or converted to UPF format
     Using radial grid of 1061 points,  2 beta functions with: 
                l(1) =   0
                l(2) =   0
     Q(r) pseudized with 0 coefficients 


     PseudoPot. # 2 for H  read from file:
     /home/cristian/Escritorio/Proyecto_Grafeno/pseudopotenciales/H.pbe-rrkjus.UPF
     MD5 check sum: 7cc9d459525c9a0585f487a71c3c9563
     Pseudo is Ultrasoft, Zval =  1.0
     Generated by new atomic code, or converted to UPF format
     Using radial grid of 1061 points,  2 beta functions with: 
                l(1) =   0
                l(2) =   0
     Q(r) pseudized with 0 coefficients 


     PseudoPot. # 3 for C  read from file:
     /home/cristian/Escritorio/Proyecto_Grafeno/pseudopotenciales/C.pbe-n-rrkjus_psl.1.0.0.UPF
     MD5 check sum: 1fdd950c42eb37d8afe3dd2f8d12311e
     Pseudo is Ultrasoft + core correction, Zval =  4.0
     Generated using "atomic" code by A. Dal Corso v.6.3MaX
     Using radial grid of 1073 points,  4 beta functions with: 
                l(1) =   0
                l(2) =   0
                l(3) =   1
                l(4) =   1
     Q(r) pseudized with 0 coefficients 


     vdW kernel table read from file rVV10_kernel_table
     MD5 check sum: b8e2538accc0c0b3206b45ba4daaba6c

     atomic species   valence    mass     pseudopotential
        H1             1.00     1.00794     H ( 1.00)
        H2             1.00     1.00794     H ( 1.00)
        C              4.00    12.01070     C ( 1.00)

      2 Sym. Ops. (no inversion) found



   Cartesian axes

     site n.     atom                  positions (alat units)
         1           H1  tau(   1) = (   0.2000000   0.4618802   0.2271531  )
         2           H2  tau(   2) = (   0.2000000   0.4618802   0.2881658  )
         3           C   tau(   3) = (   0.0000000   0.0000000   0.0000000  )
         4           C   tau(   4) = (   0.0000000   0.1154701   0.0000000  )
         5           C   tau(   5) = (  -0.1000000   0.1732051   0.0000000  )
         6           C   tau(   6) = (  -0.1000000   0.2886751   0.0000000  )
         7           C   tau(   7) = (  -0.2000000   0.3464102   0.0000000  )
         8           C   tau(   8) = (  -0.2000000   0.4618802   0.0000000  )
         9           C   tau(   9) = (  -0.3000000   0.5196152   0.0000000  )
        10           C   tau(  10) = (  -0.3000000   0.6350853   0.0000000  )
        11           C   tau(  11) = (  -0.4000000   0.6928203   0.0000000  )
        12           C   tau(  12) = (  -0.4000000   0.8082904   0.0000000  )
        13           C   tau(  13) = (   0.2000000   0.0000000   0.0000000  )
        14           C   tau(  14) = (   0.2000000   0.1154701   0.0000000  )
        15           C   tau(  15) = (   0.1000000   0.1732051   0.0000000  )
        16           C   tau(  16) = (   0.1000000   0.2886751   0.0000000  )
        17           C   tau(  17) = (   0.0000000   0.3464102   0.0000000  )
        18           C   tau(  18) = (   0.0000000   0.4618802   0.0000000  )
        19           C   tau(  19) = (  -0.1000000   0.5196152   0.0000000  )
        20           C   tau(  20) = (  -0.1000000   0.6350853   0.0000000  )
        21           C   tau(  21) = (  -0.2000000   0.6928203   0.0000000  )
        22           C   tau(  22) = (  -0.2000000   0.8082904   0.0000000  )
        23           C   tau(  23) = (   0.4000000   0.0000000   0.0000000  )
        24           C   tau(  24) = (   0.4000000   0.1154701   0.0000000  )
        25           C   tau(  25) = (   0.3000000   0.1732051   0.0000000  )
        26           C   tau(  26) = (   0.3000000   0.2886751   0.0000000  )
        27           C   tau(  27) = (   0.2000000   0.3464102   0.0000000  )
        28           C   tau(  28) = (   0.2000000   0.4618802   0.0000000  )
        29           C   tau(  29) = (   0.1000000   0.5196152   0.0000000  )
        30           C   tau(  30) = (   0.1000000   0.6350853   0.0000000  )
        31           C   tau(  31) = (   0.0000000   0.6928203   0.0000000  )
        32           C   tau(  32) = (   0.0000000   0.8082904   0.0000000  )
        33           C   tau(  33) = (   0.6000000   0.0000000   0.0000000  )
        34           C   tau(  34) = (   0.6000000   0.1154701   0.0000000  )
        35           C   tau(  35) = (   0.5000000   0.1732051   0.0000000  )
        36           C   tau(  36) = (   0.5000000   0.2886751   0.0000000  )
        37           C   tau(  37) = (   0.4000000   0.3464102   0.0000000  )
        38           C   tau(  38) = (   0.4000000   0.4618802   0.0000000  )
        39           C   tau(  39) = (   0.3000000   0.5196152   0.0000000  )
        40           C   tau(  40) = (   0.3000000   0.6350853   0.0000000  )
        41           C   tau(  41) = (   0.2000000   0.6928203   0.0000000  )
        42           C   tau(  42) = (   0.2000000   0.8082904   0.0000000  )
        43           C   tau(  43) = (   0.8000000   0.0000000   0.0000000  )
        44           C   tau(  44) = (   0.8000000   0.1154701   0.0000000  )
        45           C   tau(  45) = (   0.7000000   0.1732051   0.0000000  )
        46           C   tau(  46) = (   0.7000000   0.2886751   0.0000000  )
        47           C   tau(  47) = (   0.6000000   0.3464102   0.0000000  )
        48           C   tau(  48) = (   0.6000000   0.4618802   0.0000000  )
        49           C   tau(  49) = (   0.5000000   0.5196152   0.0000000  )
        50           C   tau(  50) = (   0.5000000   0.6350853   0.0000000  )
        51           C   tau(  51) = (   0.4000000   0.6928203   0.0000000  )
        52           C   tau(  52) = (   0.4000000   0.8082904   0.0000000  )

     number of k points=     3  Marzari-Vanderbilt smearing, width (Ry)=  0.0010
                       cart. coord. in units 2pi/alat
        k(    1) = (   0.0000000   0.0000000   0.0000000), wk =   0.5000000
        k(    2) = (   0.0000000  -0.5773503   0.0000000), wk =   1.0000000
        k(    3) = (   0.5000000  -0.2886751   0.0000000), wk =   0.5000000

     Dense  grid:  2439139 G-vectors     FFT dimensions: ( 180, 180, 200)

     Smooth grid:  1053907 G-vectors     FFT dimensions: ( 125, 125, 160)

     Estimated max dynamical RAM per process >       1.34 GB

     Estimated total dynamical RAM >       6.71 GB

     Check: negative core charge=   -0.000001

     Initial potential from superposition of free atoms

     starting charge  201.80551, renormalised to  202.00000

     negative rho (up, down):  1.001E-03 0.000E+00


---------------------------------------------------------------------------------
Carrying out rVV10 run using the following parameters:
Nqs =      20    Nr_points =    1024   r_max =   100.000
b_value =  6.30000    beta =  0.00901
     q_mesh =  0.00010000  0.00030000  0.00058939  0.00100810
               0.00161396  0.00249058  0.00375900  0.00559430
               0.00824984  0.01209221  0.01765183  0.02569619
               0.03733578  0.05417739  0.07854596  0.11380545
               0.16482331  0.23864234  0.34545298  0.50000000

Gradients computed in Reciprocal space

---------------------------------------------------------------------------------


     Starting wfcs are  202 randomized atomic wfcs

     total cpu time spent up to now is      133.5 secs

     Self-consistent Calculation

     iteration #  1     ecut=    70.00 Ry     beta= 0.70
     Davidson diagonalization with overlap
     ethr =  1.00E-02,  avg # of iterations =  2.0

     negative rho (up, down):  1.085E-03 0.000E+00

     total cpu time spent up to now is      348.6 secs

     total energy              =    -624.73893752 Ry
     Harris-Foulkes estimate   =    -628.26826828 Ry
     estimated scf accuracy    <       5.86816534 Ry

     iteration #  2     ecut=    70.00 Ry     beta= 0.70
     Davidson diagonalization with overlap
     ethr =  2.91E-03,  avg # of iterations =  8.0

     negative rho (up, down):  1.279E-03 0.000E+00

     total cpu time spent up to now is      547.0 secs

     total energy              =    -625.53378296 Ry
     Harris-Foulkes estimate   =    -625.72116417 Ry
     estimated scf accuracy    <       0.29727748 Ry

     iteration #  3     ecut=    70.00 Ry     beta= 0.70
     Davidson diagonalization with overlap
     ethr =  1.47E-04,  avg # of iterations = 10.7

     negative rho (up, down):  1.329E-03 0.000E+00

     total cpu time spent up to now is      779.5 secs

     total energy              =    -625.50316375 Ry
     Harris-Foulkes estimate   =    -625.81114466 Ry
     estimated scf accuracy    <       0.75729309 Ry

     iteration #  4     ecut=    70.00 Ry     beta= 0.70
     Davidson diagonalization with overlap
     ethr =  1.47E-04,  avg # of iterations =  7.0

     negative rho (up, down):  1.461E-03 0.000E+00

     total cpu time spent up to now is      975.3 secs

     total energy              =    -625.65645559 Ry
     Harris-Foulkes estimate   =    -625.66687437 Ry
     estimated scf accuracy    <       0.02816253 Ry

     iteration #  5     ecut=    70.00 Ry     beta= 0.70
     Davidson diagonalization with overlap
     ethr =  1.39E-05,  avg # of iterations =  9.0

     negative rho (up, down):  1.639E-03 0.000E+00

     total cpu time spent up to now is     1179.6 secs

     total energy              =    -625.66103387 Ry
     Harris-Foulkes estimate   =    -625.66399423 Ry
     estimated scf accuracy    <       0.00609718 Ry

     iteration #  6     ecut=    70.00 Ry     beta= 0.70
     Davidson diagonalization with overlap
     ethr =  3.02E-06,  avg # of iterations =  6.0

     negative rho (up, down):  1.798E-03 0.000E+00

     total cpu time spent up to now is     1375.1 secs

     total energy              =    -625.66233912 Ry
     Harris-Foulkes estimate   =    -625.66246638 Ry
     estimated scf accuracy    <       0.00020818 Ry

     iteration #  7     ecut=    70.00 Ry     beta= 0.70
     Davidson diagonalization with overlap
     ethr =  1.03E-07,  avg # of iterations =  6.0

     negative rho (up, down):  1.864E-03 0.000E+00

     total cpu time spent up to now is     1570.5 secs

     total energy              =    -625.66238931 Ry
     Harris-Foulkes estimate   =    -625.66241912 Ry
     estimated scf accuracy    <       0.00004419 Ry

     iteration #  8     ecut=    70.00 Ry     beta= 0.70
     Davidson diagonalization with overlap
     ethr =  2.19E-08,  avg # of iterations =  2.0

     negative rho (up, down):  1.872E-03 0.000E+00

     total cpu time spent up to now is     1750.6 secs

     total energy              =    -625.66239880 Ry
     Harris-Foulkes estimate   =    -625.66240078 Ry
     estimated scf accuracy    <       0.00000193 Ry

     iteration #  9     ecut=    70.00 Ry     beta= 0.70
     Davidson diagonalization with overlap
     ethr =  9.56E-10,  avg # of iterations =  3.0

     negative rho (up, down):  1.874E-03 0.000E+00

     total cpu time spent up to now is     1941.1 secs

     End of self-consistent calculation

          k = 0.0000 0.0000 0.0000 (131685 PWs)   bands (ev):

   -21.1930 -20.2598 -20.2561 -20.2561 -20.2554 -20.2554 -20.2551 -18.4226
   -18.4210 -18.4210 -18.4203 -18.4203 -18.4201 -17.5300 -17.5284 -17.5284
   -17.5278 -17.5278 -17.5273 -15.3850 -15.3841 -15.3841 -15.3833 -15.3827
   -15.3827 -14.3761 -14.3760 -14.3760 -14.3751 -14.3751 -14.3751 -13.0353
   -13.0351 -13.0351 -13.0345 -13.0345 -13.0344 -10.6750 -10.6746 -10.6746
   -10.6740 -10.6738 -10.6738 -10.5528 -10.5528 -10.5518 -10.5516 -10.5515
   -10.5515  -9.3342  -9.1798  -9.1798  -9.1790  -9.1790  -9.1790  -9.1790
    -8.3307  -8.2072  -8.2072  -8.2062  -8.2062  -8.2060  -7.9327  -7.9327
    -7.9323  -7.9312  -7.9311  -7.9311  -7.8803  -7.8803  -7.8802  -7.8792
    -7.8792  -7.8791  -7.7873  -6.2858  -6.2858  -6.2850  -6.2847  -6.2847
    -6.2843  -6.0772  -6.0772  -6.0752  -6.0752  -6.0749  -6.0675  -5.1792
    -5.1792  -5.1773  -5.1773  -5.1772  -5.1765  -4.8135  -4.8135  -3.1962
    -3.1941  -3.1941  -3.1919  -3.1915  -3.1915  -0.4023  -0.3999  -0.3999
    -0.3969  -0.3967  -0.3967   1.3517   1.4524   1.4546   1.4546   1.4592
     1.4592   1.4597   2.2471   2.4918   2.4920   2.5467   2.5952   2.5984
     2.7663

          k = 0.0000-0.5774 0.0000 (131762 PWs)   bands (ev):

   -20.9588 -20.9570 -20.4901 -20.4890 -19.5627 -19.5610 -19.5610 -19.5605
   -19.1017 -19.1012 -18.1963 -18.1955 -18.1941 -18.1941 -16.8788 -16.8778
   -16.8773 -16.8772 -16.4730 -16.4724 -16.4718 -16.4717 -15.9879 -15.2612
   -15.2609 -14.9208 -14.0567 -14.0564 -14.0556 -14.0553 -13.5849 -13.5847
   -12.6516 -12.6508 -12.6505 -12.6502 -11.8543 -11.8542 -11.6953 -11.6952
   -11.6945 -11.6945 -10.4757 -10.4756 -10.2480 -10.2471 -10.2461 -10.2460
    -9.2038  -9.2038  -9.2036  -9.2035  -9.0643  -9.0420  -8.8321  -8.8318
    -8.8307  -8.8306  -8.5144  -8.4830  -8.3570  -8.3567  -8.3560  -8.3559
    -8.1639  -7.9133  -7.4442  -7.4439  -7.4438  -7.4437  -7.3902  -7.3900
    -7.3889  -7.3465  -7.2670  -7.2662  -7.0597  -7.0592  -6.8647  -6.8548
    -6.2127  -6.2122  -5.8453  -5.8426  -5.8425  -5.8396  -5.7206  -5.7194
    -5.2807  -5.2795  -4.4042  -4.4025  -4.4018  -4.4014  -4.2000  -4.1994
    -4.1978  -4.1975  -4.0523  -2.7178  -2.7169  -0.6818  -0.6805  -0.0294
     0.3538   0.3544   0.3588   0.3593   1.0012   1.0061   1.0066   1.0072
     1.6172   1.6994   2.2223   2.3098   2.5351   2.5918   2.6222   2.6252
     2.6263

          k = 0.5000-0.2887 0.0000 (131762 PWs)   bands (ev):

   -20.9588 -20.9570 -20.4901 -20.4890 -19.5627 -19.5610 -19.5610 -19.5604
   -19.1017 -19.1012 -18.1963 -18.1955 -18.1941 -18.1941 -16.8788 -16.8778
   -16.8773 -16.8772 -16.4730 -16.4724 -16.4718 -16.4717 -15.9879 -15.2612
   -15.2609 -14.9208 -14.0567 -14.0564 -14.0556 -14.0553 -13.5849 -13.5847
   -12.6516 -12.6508 -12.6505 -12.6502 -11.8543 -11.8542 -11.6953 -11.6952
   -11.6945 -11.6945 -10.4757 -10.4756 -10.2480 -10.2471 -10.2460 -10.2460
    -9.2038  -9.2038  -9.2036  -9.2035  -9.0643  -9.0420  -8.8321  -8.8318
    -8.8307  -8.8306  -8.5144  -8.4830  -8.3570  -8.3567  -8.3560  -8.3559
    -8.1639  -7.9133  -7.4442  -7.4439  -7.4438  -7.4437  -7.3902  -7.3900
    -7.3889  -7.3465  -7.2670  -7.2662  -7.0597  -7.0592  -6.8647  -6.8548
    -6.2127  -6.2122  -5.8453  -5.8426  -5.8425  -5.8396  -5.7207  -5.7194
    -5.2807  -5.2795  -4.4042  -4.4025  -4.4018  -4.4014  -4.2000  -4.1994
    -4.1978  -4.1975  -4.0523  -2.7178  -2.7169  -0.6818  -0.6805  -0.0294
     0.3538   0.3544   0.3588   0.3593   1.0012   1.0061   1.0066   1.0072
     1.6172   1.6994   2.2223   2.3098   2.5351   2.5918   2.6221   2.6253
     2.6263

     the Fermi energy is    -1.7091 ev

!    total energy              =    -625.66239888 Ry
     Harris-Foulkes estimate   =    -625.66239949 Ry
     estimated scf accuracy    <       0.00000032 Ry

     The total energy is the sum of the following terms:

     one-electron contribution =   -3933.50736000 Ry
     hartree contribution      =    2003.64508038 Ry
     xc contribution           =    -235.30124018 Ry
     ewald contribution        =    1539.50112091 Ry
     smearing contrib. (-TS)   =       0.00000000 Ry

     convergence has been achieved in   9 iterations

     Writing output data file gr-12.save/

     init_run     :    131.63s CPU    133.03s WALL (       1 calls)
     electrons    :   1790.18s CPU   1807.78s WALL (       1 calls)

     Called by init_run:
     wfcinit      :     86.25s CPU     86.78s WALL (       1 calls)
     potinit      :     21.93s CPU     22.47s WALL (       1 calls)
     hinit0       :     17.87s CPU     17.92s WALL (       1 calls)

     Called by electrons:
     c_bands      :   1456.50s CPU   1464.62s WALL (       9 calls)
     sum_band     :    207.20s CPU    210.22s WALL (       9 calls)
     v_of_rho     :     90.14s CPU     94.93s WALL (      10 calls)
     newd         :     46.28s CPU     48.53s WALL (      10 calls)
     mix_rho      :      2.21s CPU      2.24s WALL (       9 calls)

     Called by c_bands:
     init_us_2    :      3.55s CPU      3.60s WALL (      57 calls)
     cegterg      :   1448.35s CPU   1456.44s WALL (      27 calls)

     Called by sum_band:
     sum_band:bec :      0.02s CPU      0.02s WALL (      27 calls)
     addusdens    :     62.91s CPU     65.00s WALL (       9 calls)

     Called by *egterg:
     h_psi        :    787.87s CPU    793.79s WALL (     191 calls)
     s_psi        :    249.60s CPU    249.70s WALL (     191 calls)
     g_psi        :      1.07s CPU      1.07s WALL (     161 calls)
     cdiaghg      :     15.96s CPU     15.97s WALL (     188 calls)

     Called by h_psi:
     h_psi:pot    :    786.87s CPU    791.77s WALL (     191 calls)
     h_psi:calbec :    249.53s CPU    249.60s WALL (     191 calls)
     vloc_psi     :    287.84s CPU    292.61s WALL (     191 calls)
     add_vuspsi   :    249.50s CPU    249.55s WALL (     191 calls)

     General routines
     calbec       :    333.13s CPU    333.22s WALL (     218 calls)
     fft          :     48.71s CPU     50.45s WALL (     628 calls)
     ffts         :      0.54s CPU      0.57s WALL (      19 calls)
     fftw         :    284.50s CPU    289.31s WALL (   22755 calls)
     interpolate  :      1.25s CPU      1.30s WALL (      10 calls)

     Parallel routines
     fft_scatt_xy :     73.70s CPU     74.16s WALL (   23402 calls)
     fft_scatt_yz :     81.71s CPU     86.41s WALL (   23402 calls)

     PWSCF        :  32m 2.60s CPU  32m22.16s WALL


   This run was terminated on:  12:57: 9  18Jun2022            

=------------------------------------------------------------------------------=
   JOB DONE.
=------------------------------------------------------------------------------=
