
     Program PWSCF v.6.4.1 starts on 18Jun2022 at 11:23:21 

     This program is part of the open-source Quantum ESPRESSO suite
     for quantum simulation of materials; please cite
         "P. Giannozzi et al., J. Phys.:Condens. Matter 21 395502 (2009);
         "P. Giannozzi et al., J. Phys.:Condens. Matter 29 465901 (2017);
          URL http://www.quantum-espresso.org", 
     in publications or presentations arising from this work. More details at
     http://www.quantum-espresso.org/quote

     Parallel version (MPI), running on     5 processors

     MPI processes distributed on     1 nodes
     R & G space division:  proc/nbgrp/npool/nimage =       5
     Reading input from distance-3.5.in

     Current dimensions of program PWSCF are:
     Max number of different atomic species (ntypx) = 10
     Max number of k-points (npk) =  40000
     Max angular momentum in pseudopotentials (lmaxx) =  3

     IMPORTANT: XC functional enforced from input :
     Exchange-correlation      = RVV10 ( 1  4 13  4 3 0)
     Any further DFT definition will be discarded
     Please, verify this is what you really want

               file H.pbe-rrkjus.UPF: wavefunction(s)  1S renormalized
               file H.pbe-rrkjus.UPF: wavefunction(s)  1S renormalized

     Subspace diagonalization in iterative solution of the eigenvalue problem:
     a serial algorithm will be used


     Parallelization info
     --------------------
     sticks:   dense  smooth     PW     G-vecs:    dense   smooth      PW
     Min        3662    2095    542               487826   210779   27834
     Max        3663    2096    543               487829   210784   27841
     Sum       18313   10477   2713              2439139  1053907  139193



     bravais-lattice index     =            4
     lattice parameter (alat)  =      23.2937  a.u.
     unit-cell volume          =   13319.7822 (a.u.)^3
     number of atoms/cell      =           52
     number of atomic types    =            3
     number of electrons       =       202.00
     number of Kohn-Sham states=          121
     kinetic-energy cutoff     =      70.0000  Ry
     charge density cutoff     =     490.0000  Ry
     convergence threshold     =      1.0E-06
     mixing beta               =       0.7000
     number of iterations used =            8  plain     mixing
     Exchange-correlation      = RVV10 ( 1  4 13  4 3 0)

     celldm(1)=  23.293684  celldm(2)=   0.000000  celldm(3)=   1.216892
     celldm(4)=   0.000000  celldm(5)=   0.000000  celldm(6)=   0.000000

     crystal axes: (cart. coord. in units of alat)
               a(1) = (   1.000000   0.000000   0.000000 )  
               a(2) = (  -0.500000   0.866025   0.000000 )  
               a(3) = (   0.000000   0.000000   1.216892 )  

     reciprocal axes: (cart. coord. in units 2 pi/alat)
               b(1) = (  1.000000  0.577350 -0.000000 )  
               b(2) = (  0.000000  1.154701  0.000000 )  
               b(3) = (  0.000000 -0.000000  0.821766 )  


     PseudoPot. # 1 for H  read from file:
     /home/cristian/Escritorio/Proyecto_Grafeno/pseudopotenciales/H.pbe-rrkjus.UPF
     MD5 check sum: 7cc9d459525c9a0585f487a71c3c9563
     Pseudo is Ultrasoft, Zval =  1.0
     Generated by new atomic code, or converted to UPF format
     Using radial grid of 1061 points,  2 beta functions with: 
                l(1) =   0
                l(2) =   0
     Q(r) pseudized with 0 coefficients 


     PseudoPot. # 2 for H  read from file:
     /home/cristian/Escritorio/Proyecto_Grafeno/pseudopotenciales/H.pbe-rrkjus.UPF
     MD5 check sum: 7cc9d459525c9a0585f487a71c3c9563
     Pseudo is Ultrasoft, Zval =  1.0
     Generated by new atomic code, or converted to UPF format
     Using radial grid of 1061 points,  2 beta functions with: 
                l(1) =   0
                l(2) =   0
     Q(r) pseudized with 0 coefficients 


     PseudoPot. # 3 for C  read from file:
     /home/cristian/Escritorio/Proyecto_Grafeno/pseudopotenciales/C.pbe-n-rrkjus_psl.1.0.0.UPF
     MD5 check sum: 1fdd950c42eb37d8afe3dd2f8d12311e
     Pseudo is Ultrasoft + core correction, Zval =  4.0
     Generated using "atomic" code by A. Dal Corso v.6.3MaX
     Using radial grid of 1073 points,  4 beta functions with: 
                l(1) =   0
                l(2) =   0
                l(3) =   1
                l(4) =   1
     Q(r) pseudized with 0 coefficients 


     vdW kernel table read from file rVV10_kernel_table
     MD5 check sum: b8e2538accc0c0b3206b45ba4daaba6c

     atomic species   valence    mass     pseudopotential
        H1             1.00     1.00794     H ( 1.00)
        H2             1.00     1.00794     H ( 1.00)
        C              4.00    12.01070     C ( 1.00)

      2 Sym. Ops. (no inversion) found



   Cartesian axes

     site n.     atom                  positions (alat units)
         1           H1  tau(   1) = (   0.2000000   0.4618802   0.2839414  )
         2           H2  tau(   2) = (   0.2000000   0.4618802   0.3449541  )
         3           C   tau(   3) = (   0.0000000   0.0000000   0.0000000  )
         4           C   tau(   4) = (   0.0000000   0.1154701   0.0000000  )
         5           C   tau(   5) = (  -0.1000000   0.1732051   0.0000000  )
         6           C   tau(   6) = (  -0.1000000   0.2886751   0.0000000  )
         7           C   tau(   7) = (  -0.2000000   0.3464102   0.0000000  )
         8           C   tau(   8) = (  -0.2000000   0.4618802   0.0000000  )
         9           C   tau(   9) = (  -0.3000000   0.5196152   0.0000000  )
        10           C   tau(  10) = (  -0.3000000   0.6350853   0.0000000  )
        11           C   tau(  11) = (  -0.4000000   0.6928203   0.0000000  )
        12           C   tau(  12) = (  -0.4000000   0.8082904   0.0000000  )
        13           C   tau(  13) = (   0.2000000   0.0000000   0.0000000  )
        14           C   tau(  14) = (   0.2000000   0.1154701   0.0000000  )
        15           C   tau(  15) = (   0.1000000   0.1732051   0.0000000  )
        16           C   tau(  16) = (   0.1000000   0.2886751   0.0000000  )
        17           C   tau(  17) = (   0.0000000   0.3464102   0.0000000  )
        18           C   tau(  18) = (   0.0000000   0.4618802   0.0000000  )
        19           C   tau(  19) = (  -0.1000000   0.5196152   0.0000000  )
        20           C   tau(  20) = (  -0.1000000   0.6350853   0.0000000  )
        21           C   tau(  21) = (  -0.2000000   0.6928203   0.0000000  )
        22           C   tau(  22) = (  -0.2000000   0.8082904   0.0000000  )
        23           C   tau(  23) = (   0.4000000   0.0000000   0.0000000  )
        24           C   tau(  24) = (   0.4000000   0.1154701   0.0000000  )
        25           C   tau(  25) = (   0.3000000   0.1732051   0.0000000  )
        26           C   tau(  26) = (   0.3000000   0.2886751   0.0000000  )
        27           C   tau(  27) = (   0.2000000   0.3464102   0.0000000  )
        28           C   tau(  28) = (   0.2000000   0.4618802   0.0000000  )
        29           C   tau(  29) = (   0.1000000   0.5196152   0.0000000  )
        30           C   tau(  30) = (   0.1000000   0.6350853   0.0000000  )
        31           C   tau(  31) = (   0.0000000   0.6928203   0.0000000  )
        32           C   tau(  32) = (   0.0000000   0.8082904   0.0000000  )
        33           C   tau(  33) = (   0.6000000   0.0000000   0.0000000  )
        34           C   tau(  34) = (   0.6000000   0.1154701   0.0000000  )
        35           C   tau(  35) = (   0.5000000   0.1732051   0.0000000  )
        36           C   tau(  36) = (   0.5000000   0.2886751   0.0000000  )
        37           C   tau(  37) = (   0.4000000   0.3464102   0.0000000  )
        38           C   tau(  38) = (   0.4000000   0.4618802   0.0000000  )
        39           C   tau(  39) = (   0.3000000   0.5196152   0.0000000  )
        40           C   tau(  40) = (   0.3000000   0.6350853   0.0000000  )
        41           C   tau(  41) = (   0.2000000   0.6928203   0.0000000  )
        42           C   tau(  42) = (   0.2000000   0.8082904   0.0000000  )
        43           C   tau(  43) = (   0.8000000   0.0000000   0.0000000  )
        44           C   tau(  44) = (   0.8000000   0.1154701   0.0000000  )
        45           C   tau(  45) = (   0.7000000   0.1732051   0.0000000  )
        46           C   tau(  46) = (   0.7000000   0.2886751   0.0000000  )
        47           C   tau(  47) = (   0.6000000   0.3464102   0.0000000  )
        48           C   tau(  48) = (   0.6000000   0.4618802   0.0000000  )
        49           C   tau(  49) = (   0.5000000   0.5196152   0.0000000  )
        50           C   tau(  50) = (   0.5000000   0.6350853   0.0000000  )
        51           C   tau(  51) = (   0.4000000   0.6928203   0.0000000  )
        52           C   tau(  52) = (   0.4000000   0.8082904   0.0000000  )

     number of k points=     3  Marzari-Vanderbilt smearing, width (Ry)=  0.0010
                       cart. coord. in units 2pi/alat
        k(    1) = (   0.0000000   0.0000000   0.0000000), wk =   0.5000000
        k(    2) = (   0.0000000  -0.5773503   0.0000000), wk =   1.0000000
        k(    3) = (   0.5000000  -0.2886751   0.0000000), wk =   0.5000000

     Dense  grid:  2439139 G-vectors     FFT dimensions: ( 180, 180, 200)

     Smooth grid:  1053907 G-vectors     FFT dimensions: ( 125, 125, 160)

     Estimated max dynamical RAM per process >       1.34 GB

     Estimated total dynamical RAM >       6.71 GB

     Check: negative core charge=   -0.000001

     Initial potential from superposition of free atoms

     starting charge  201.80551, renormalised to  202.00000

     negative rho (up, down):  9.259E-04 0.000E+00


---------------------------------------------------------------------------------
Carrying out rVV10 run using the following parameters:
Nqs =      20    Nr_points =    1024   r_max =   100.000
b_value =  6.30000    beta =  0.00901
     q_mesh =  0.00010000  0.00030000  0.00058939  0.00100810
               0.00161396  0.00249058  0.00375900  0.00559430
               0.00824984  0.01209221  0.01765183  0.02569619
               0.03733578  0.05417739  0.07854596  0.11380545
               0.16482331  0.23864234  0.34545298  0.50000000

Gradients computed in Reciprocal space

---------------------------------------------------------------------------------


     Starting wfcs are  202 randomized atomic wfcs

     total cpu time spent up to now is      137.2 secs

     Self-consistent Calculation

     iteration #  1     ecut=    70.00 Ry     beta= 0.70
     Davidson diagonalization with overlap
     ethr =  1.00E-02,  avg # of iterations =  2.0

     negative rho (up, down):  9.767E-04 0.000E+00

     total cpu time spent up to now is      353.9 secs

     total energy              =    -624.76093535 Ry
     Harris-Foulkes estimate   =    -628.27318454 Ry
     estimated scf accuracy    <       5.85159347 Ry

     iteration #  2     ecut=    70.00 Ry     beta= 0.70
     Davidson diagonalization with overlap
     ethr =  2.90E-03,  avg # of iterations =  7.3

     negative rho (up, down):  1.165E-03 0.000E+00

     total cpu time spent up to now is      552.5 secs

     total energy              =    -625.62051930 Ry
     Harris-Foulkes estimate   =    -625.68763084 Ry
     estimated scf accuracy    <       0.15268748 Ry

     iteration #  3     ecut=    70.00 Ry     beta= 0.70
     Davidson diagonalization with overlap
     c_bands:  1 eigenvalues not converged
     c_bands:  3 eigenvalues not converged
     c_bands:  1 eigenvalues not converged
     ethr =  7.56E-05,  avg # of iterations = 20.0

     negative rho (up, down):  1.214E-03 0.000E+00

     total cpu time spent up to now is      790.0 secs

     total energy              =    -625.60316215 Ry
     Harris-Foulkes estimate   =    -625.69861756 Ry
     estimated scf accuracy    <       0.19494182 Ry

     iteration #  4     ecut=    70.00 Ry     beta= 0.70
     Davidson diagonalization with overlap
     ethr =  7.56E-05,  avg # of iterations =  6.7

     negative rho (up, down):  1.400E-03 0.000E+00

     total cpu time spent up to now is      982.6 secs

     total energy              =    -625.65263278 Ry
     Harris-Foulkes estimate   =    -625.66924100 Ry
     estimated scf accuracy    <       0.04675519 Ry

     iteration #  5     ecut=    70.00 Ry     beta= 0.70
     Davidson diagonalization with overlap
     ethr =  2.31E-05,  avg # of iterations =  6.0

     negative rho (up, down):  1.574E-03 0.000E+00

     total cpu time spent up to now is     1163.7 secs

     total energy              =    -625.66015915 Ry
     Harris-Foulkes estimate   =    -625.66109552 Ry
     estimated scf accuracy    <       0.00172917 Ry

     iteration #  6     ecut=    70.00 Ry     beta= 0.70
     Davidson diagonalization with overlap
     ethr =  8.56E-07,  avg # of iterations = 10.3

     negative rho (up, down):  1.765E-03 0.000E+00

     total cpu time spent up to now is     1377.7 secs

     total energy              =    -625.66061694 Ry
     Harris-Foulkes estimate   =    -625.66071193 Ry
     estimated scf accuracy    <       0.00014895 Ry

     iteration #  7     ecut=    70.00 Ry     beta= 0.70
     Davidson diagonalization with overlap
     ethr =  7.37E-08,  avg # of iterations =  7.0

     negative rho (up, down):  1.804E-03 0.000E+00

     total cpu time spent up to now is     1573.4 secs

     total energy              =    -625.66064653 Ry
     Harris-Foulkes estimate   =    -625.66066809 Ry
     estimated scf accuracy    <       0.00003466 Ry

     iteration #  8     ecut=    70.00 Ry     beta= 0.70
     Davidson diagonalization with overlap
     ethr =  1.72E-08,  avg # of iterations =  2.0

     negative rho (up, down):  1.813E-03 0.000E+00

     total cpu time spent up to now is     1755.4 secs

     End of self-consistent calculation

          k = 0.0000 0.0000 0.0000 (131685 PWs)   bands (ev):

   -21.1899 -20.2556 -20.2532 -20.2532 -20.2526 -20.2523 -20.2523 -18.4189
   -18.4182 -18.4182 -18.4173 -18.4173 -18.4170 -17.5258 -17.5254 -17.5254
   -17.5249 -17.5249 -17.5248 -15.3816 -15.3808 -15.3808 -15.3805 -15.3798
   -15.3798 -14.3730 -14.3730 -14.3729 -14.3721 -14.3721 -14.3720 -13.0320
   -13.0320 -13.0319 -13.0316 -13.0316 -13.0316 -10.6717 -10.6715 -10.6714
   -10.6709 -10.6709 -10.6709 -10.5496 -10.5495 -10.5487 -10.5487 -10.5487
   -10.5483  -9.3237  -9.1764  -9.1764  -9.1762  -9.1761  -9.1761  -9.1760
    -8.2265  -8.2045  -8.2045  -8.2037  -8.2034  -8.2034  -7.9295  -7.9295
    -7.9293  -7.9282  -7.9282  -7.9282  -7.8834  -7.8771  -7.8771  -7.8767
    -7.8764  -7.8764  -7.8757  -6.2825  -6.2825  -6.2819  -6.2819  -6.2819
    -6.2812  -6.0743  -6.0738  -6.0738  -6.0726  -6.0725  -6.0722  -5.1764
    -5.1758  -5.1758  -5.1746  -5.1746  -5.1745  -4.8105  -4.8105  -3.1916
    -3.1903  -3.1903  -3.1896  -3.1889  -3.1889  -0.3963  -0.3954  -0.3954
    -0.3944  -0.3939  -0.3939   1.3259   1.4598   1.4600   1.4600   1.4620
     1.4620   1.4620   2.2660   2.4013   2.4983   2.4983   2.5958   2.5970
     2.6944

          k = 0.0000-0.5774 0.0000 (131762 PWs)   bands (ev):

   -20.9555 -20.9541 -20.4869 -20.4860 -19.5589 -19.5584 -19.5579 -19.5576
   -19.0984 -19.0983 -18.1927 -18.1924 -18.1913 -18.1912 -16.8754 -16.8749
   -16.8744 -16.8741 -16.4695 -16.4693 -16.4689 -16.4688 -15.9849 -15.2580
   -15.2579 -14.9177 -14.0533 -14.0533 -14.0526 -14.0526 -13.5817 -13.5817
   -12.6483 -12.6479 -12.6474 -12.6471 -11.8512 -11.8512 -11.6922 -11.6921
   -11.6915 -11.6914 -10.4726 -10.4725 -10.2446 -10.2440 -10.2432 -10.2429
    -9.2007  -9.2006  -9.2006  -9.2005  -9.0437  -9.0394  -8.8288  -8.8287
    -8.8277  -8.8277  -8.4854  -8.4802  -8.3540  -8.3535  -8.3531  -8.3527
    -8.1608  -7.9017  -7.4411  -7.4410  -7.4407  -7.4407  -7.3875  -7.3869
    -7.3864  -7.3834  -7.2637  -7.2634  -7.0567  -7.0561  -6.8616  -6.8610
    -6.2097  -6.2091  -5.8417  -5.8415  -5.8400  -5.8398  -5.7175  -5.7165
    -5.2776  -5.2765  -4.4009  -4.3996  -4.3991  -4.3985  -4.1966  -4.1961
    -4.1950  -4.1949  -4.0492  -2.7141  -2.7138  -0.6777  -0.6774  -0.0251
     0.3596   0.3597   0.3617   0.3618   1.0076   1.0093   1.0094   1.0101
     1.6191   1.6516   2.2264   2.2660   2.5307   2.5830   2.6256   2.6272
     2.6279

          k = 0.5000-0.2887 0.0000 (131762 PWs)   bands (ev):

   -20.9555 -20.9541 -20.4869 -20.4860 -19.5589 -19.5584 -19.5579 -19.5576
   -19.0984 -19.0983 -18.1927 -18.1924 -18.1913 -18.1912 -16.8754 -16.8749
   -16.8744 -16.8741 -16.4695 -16.4693 -16.4689 -16.4688 -15.9849 -15.2580
   -15.2579 -14.9177 -14.0533 -14.0533 -14.0526 -14.0526 -13.5817 -13.5817
   -12.6483 -12.6479 -12.6474 -12.6471 -11.8512 -11.8512 -11.6922 -11.6921
   -11.6915 -11.6914 -10.4726 -10.4725 -10.2446 -10.2440 -10.2432 -10.2429
    -9.2007  -9.2006  -9.2006  -9.2005  -9.0437  -9.0394  -8.8288  -8.8287
    -8.8277  -8.8277  -8.4854  -8.4802  -8.3540  -8.3535  -8.3531  -8.3527
    -8.1608  -7.9017  -7.4411  -7.4410  -7.4407  -7.4407  -7.3875  -7.3869
    -7.3864  -7.3834  -7.2637  -7.2634  -7.0567  -7.0561  -6.8616  -6.8610
    -6.2097  -6.2091  -5.8417  -5.8415  -5.8400  -5.8398  -5.7175  -5.7165
    -5.2776  -5.2765  -4.4009  -4.3996  -4.3991  -4.3985  -4.1966  -4.1961
    -4.1950  -4.1949  -4.0492  -2.7141  -2.7138  -0.6777  -0.6774  -0.0251
     0.3596   0.3597   0.3617   0.3618   1.0076   1.0093   1.0094   1.0101
     1.6191   1.6516   2.2264   2.2660   2.5307   2.5830   2.6256   2.6271
     2.6279

     the Fermi energy is    -1.7669 ev

!    total energy              =    -625.66065268 Ry
     Harris-Foulkes estimate   =    -625.66065440 Ry
     estimated scf accuracy    <       0.00000080 Ry

     The total energy is the sum of the following terms:

     one-electron contribution =   -3918.55747454 Ry
     hartree contribution      =    1996.19102355 Ry
     xc contribution           =    -235.29639648 Ry
     ewald contribution        =    1532.00219480 Ry
     smearing contrib. (-TS)   =       0.00000000 Ry

     convergence has been achieved in   8 iterations

     Writing output data file gr-12.save/

     init_run     :    135.27s CPU    136.76s WALL (       1 calls)
     electrons    :   1602.87s CPU   1618.35s WALL (       1 calls)

     Called by init_run:
     wfcinit      :     97.87s CPU     98.41s WALL (       1 calls)
     potinit      :     18.72s CPU     19.29s WALL (       1 calls)
     hinit0       :     13.01s CPU     13.06s WALL (       1 calls)

     Called by electrons:
     c_bands      :   1303.22s CPU   1310.01s WALL (       8 calls)
     sum_band     :    186.19s CPU    188.54s WALL (       8 calls)
     v_of_rho     :     83.09s CPU     87.95s WALL (       9 calls)
     newd         :     41.36s CPU     43.53s WALL (       9 calls)
     mix_rho      :      1.86s CPU      1.91s WALL (       8 calls)

     Called by c_bands:
     init_us_2    :      3.40s CPU      3.44s WALL (      51 calls)
     cegterg      :   1295.46s CPU   1302.22s WALL (      24 calls)

     Called by sum_band:
     sum_band:bec :      0.02s CPU      0.02s WALL (      24 calls)
     addusdens    :     57.60s CPU     59.29s WALL (       8 calls)

     Called by *egterg:
     h_psi        :    717.05s CPU    722.19s WALL (     211 calls)
     s_psi        :    227.87s CPU    227.99s WALL (     211 calls)
     g_psi        :      0.92s CPU      0.92s WALL (     184 calls)
     cdiaghg      :     18.76s CPU     18.77s WALL (     208 calls)

     Called by h_psi:
     h_psi:pot    :    716.12s CPU    720.39s WALL (     211 calls)
     h_psi:calbec :    229.46s CPU    229.56s WALL (     211 calls)
     vloc_psi     :    258.86s CPU    262.97s WALL (     211 calls)
     add_vuspsi   :    227.79s CPU    227.87s WALL (     211 calls)

     General routines
     calbec       :    306.09s CPU    306.20s WALL (     235 calls)
     fft          :     44.67s CPU     46.30s WALL (     565 calls)
     ffts         :      0.48s CPU      0.51s WALL (      17 calls)
     fftw         :    258.88s CPU    262.97s WALL (   20128 calls)
     interpolate  :      1.09s CPU      1.12s WALL (       9 calls)

     Parallel routines
     fft_scatt_xy :     67.37s CPU     67.85s WALL (   20710 calls)
     fft_scatt_yz :     78.98s CPU     83.00s WALL (   20710 calls)

     PWSCF        :  28m58.88s CPU  29m16.45s WALL


   This run was terminated on:  11:52:37  18Jun2022            

=------------------------------------------------------------------------------=
   JOB DONE.
=------------------------------------------------------------------------------=
