
     Program PWSCF v.6.4.1 starts on 18Jun2022 at 15:14: 2 

     This program is part of the open-source Quantum ESPRESSO suite
     for quantum simulation of materials; please cite
         "P. Giannozzi et al., J. Phys.:Condens. Matter 21 395502 (2009);
         "P. Giannozzi et al., J. Phys.:Condens. Matter 29 465901 (2017);
          URL http://www.quantum-espresso.org", 
     in publications or presentations arising from this work. More details at
     http://www.quantum-espresso.org/quote

     Parallel version (MPI), running on     5 processors

     MPI processes distributed on     1 nodes
     R & G space division:  proc/nbgrp/npool/nimage =       5
     Reading input from distance-1.8.in

     Current dimensions of program PWSCF are:
     Max number of different atomic species (ntypx) = 10
     Max number of k-points (npk) =  40000
     Max angular momentum in pseudopotentials (lmaxx) =  3

     IMPORTANT: XC functional enforced from input :
     Exchange-correlation      = RVV10 ( 1  4 13  4 3 0)
     Any further DFT definition will be discarded
     Please, verify this is what you really want

               file H.pbe-rrkjus.UPF: wavefunction(s)  1S renormalized
               file H.pbe-rrkjus.UPF: wavefunction(s)  1S renormalized

     Subspace diagonalization in iterative solution of the eigenvalue problem:
     a serial algorithm will be used


     Parallelization info
     --------------------
     sticks:   dense  smooth     PW     G-vecs:    dense   smooth      PW
     Min        3662    2095    542               487826   210779   27834
     Max        3663    2096    543               487829   210784   27841
     Sum       18313   10477   2713              2439139  1053907  139193



     bravais-lattice index     =            4
     lattice parameter (alat)  =      23.2937  a.u.
     unit-cell volume          =   13319.7822 (a.u.)^3
     number of atoms/cell      =           52
     number of atomic types    =            3
     number of electrons       =       202.00
     number of Kohn-Sham states=          121
     kinetic-energy cutoff     =      70.0000  Ry
     charge density cutoff     =     490.0000  Ry
     convergence threshold     =      1.0E-06
     mixing beta               =       0.7000
     number of iterations used =            8  plain     mixing
     Exchange-correlation      = RVV10 ( 1  4 13  4 3 0)

     celldm(1)=  23.293684  celldm(2)=   0.000000  celldm(3)=   1.216892
     celldm(4)=   0.000000  celldm(5)=   0.000000  celldm(6)=   0.000000

     crystal axes: (cart. coord. in units of alat)
               a(1) = (   1.000000   0.000000   0.000000 )  
               a(2) = (  -0.500000   0.866025   0.000000 )  
               a(3) = (   0.000000   0.000000   1.216892 )  

     reciprocal axes: (cart. coord. in units 2 pi/alat)
               b(1) = (  1.000000  0.577350 -0.000000 )  
               b(2) = (  0.000000  1.154701  0.000000 )  
               b(3) = (  0.000000 -0.000000  0.821766 )  


     PseudoPot. # 1 for H  read from file:
     /home/cristian/Escritorio/Proyecto_Grafeno/pseudopotenciales/H.pbe-rrkjus.UPF
     MD5 check sum: 7cc9d459525c9a0585f487a71c3c9563
     Pseudo is Ultrasoft, Zval =  1.0
     Generated by new atomic code, or converted to UPF format
     Using radial grid of 1061 points,  2 beta functions with: 
                l(1) =   0
                l(2) =   0
     Q(r) pseudized with 0 coefficients 


     PseudoPot. # 2 for H  read from file:
     /home/cristian/Escritorio/Proyecto_Grafeno/pseudopotenciales/H.pbe-rrkjus.UPF
     MD5 check sum: 7cc9d459525c9a0585f487a71c3c9563
     Pseudo is Ultrasoft, Zval =  1.0
     Generated by new atomic code, or converted to UPF format
     Using radial grid of 1061 points,  2 beta functions with: 
                l(1) =   0
                l(2) =   0
     Q(r) pseudized with 0 coefficients 


     PseudoPot. # 3 for C  read from file:
     /home/cristian/Escritorio/Proyecto_Grafeno/pseudopotenciales/C.pbe-n-rrkjus_psl.1.0.0.UPF
     MD5 check sum: 1fdd950c42eb37d8afe3dd2f8d12311e
     Pseudo is Ultrasoft + core correction, Zval =  4.0
     Generated using "atomic" code by A. Dal Corso v.6.3MaX
     Using radial grid of 1073 points,  4 beta functions with: 
                l(1) =   0
                l(2) =   0
                l(3) =   1
                l(4) =   1
     Q(r) pseudized with 0 coefficients 


     vdW kernel table read from file rVV10_kernel_table
     MD5 check sum: b8e2538accc0c0b3206b45ba4daaba6c

     atomic species   valence    mass     pseudopotential
        H1             1.00     1.00794     H ( 1.00)
        H2             1.00     1.00794     H ( 1.00)
        C              4.00    12.01070     C ( 1.00)

      2 Sym. Ops. (no inversion) found



   Cartesian axes

     site n.     atom                  positions (alat units)
         1           H1  tau(   1) = (   0.2000000   0.4618802   0.1460270  )
         2           H2  tau(   2) = (   0.2000000   0.4618802   0.2070397  )
         3           C   tau(   3) = (   0.0000000   0.0000000   0.0000000  )
         4           C   tau(   4) = (   0.0000000   0.1154701   0.0000000  )
         5           C   tau(   5) = (  -0.1000000   0.1732051   0.0000000  )
         6           C   tau(   6) = (  -0.1000000   0.2886751   0.0000000  )
         7           C   tau(   7) = (  -0.2000000   0.3464102   0.0000000  )
         8           C   tau(   8) = (  -0.2000000   0.4618802   0.0000000  )
         9           C   tau(   9) = (  -0.3000000   0.5196152   0.0000000  )
        10           C   tau(  10) = (  -0.3000000   0.6350853   0.0000000  )
        11           C   tau(  11) = (  -0.4000000   0.6928203   0.0000000  )
        12           C   tau(  12) = (  -0.4000000   0.8082904   0.0000000  )
        13           C   tau(  13) = (   0.2000000   0.0000000   0.0000000  )
        14           C   tau(  14) = (   0.2000000   0.1154701   0.0000000  )
        15           C   tau(  15) = (   0.1000000   0.1732051   0.0000000  )
        16           C   tau(  16) = (   0.1000000   0.2886751   0.0000000  )
        17           C   tau(  17) = (   0.0000000   0.3464102   0.0000000  )
        18           C   tau(  18) = (   0.0000000   0.4618802   0.0000000  )
        19           C   tau(  19) = (  -0.1000000   0.5196152   0.0000000  )
        20           C   tau(  20) = (  -0.1000000   0.6350853   0.0000000  )
        21           C   tau(  21) = (  -0.2000000   0.6928203   0.0000000  )
        22           C   tau(  22) = (  -0.2000000   0.8082904   0.0000000  )
        23           C   tau(  23) = (   0.4000000   0.0000000   0.0000000  )
        24           C   tau(  24) = (   0.4000000   0.1154701   0.0000000  )
        25           C   tau(  25) = (   0.3000000   0.1732051   0.0000000  )
        26           C   tau(  26) = (   0.3000000   0.2886751   0.0000000  )
        27           C   tau(  27) = (   0.2000000   0.3464102   0.0000000  )
        28           C   tau(  28) = (   0.2000000   0.4618802   0.0000000  )
        29           C   tau(  29) = (   0.1000000   0.5196152   0.0000000  )
        30           C   tau(  30) = (   0.1000000   0.6350853   0.0000000  )
        31           C   tau(  31) = (   0.0000000   0.6928203   0.0000000  )
        32           C   tau(  32) = (   0.0000000   0.8082904   0.0000000  )
        33           C   tau(  33) = (   0.6000000   0.0000000   0.0000000  )
        34           C   tau(  34) = (   0.6000000   0.1154701   0.0000000  )
        35           C   tau(  35) = (   0.5000000   0.1732051   0.0000000  )
        36           C   tau(  36) = (   0.5000000   0.2886751   0.0000000  )
        37           C   tau(  37) = (   0.4000000   0.3464102   0.0000000  )
        38           C   tau(  38) = (   0.4000000   0.4618802   0.0000000  )
        39           C   tau(  39) = (   0.3000000   0.5196152   0.0000000  )
        40           C   tau(  40) = (   0.3000000   0.6350853   0.0000000  )
        41           C   tau(  41) = (   0.2000000   0.6928203   0.0000000  )
        42           C   tau(  42) = (   0.2000000   0.8082904   0.0000000  )
        43           C   tau(  43) = (   0.8000000   0.0000000   0.0000000  )
        44           C   tau(  44) = (   0.8000000   0.1154701   0.0000000  )
        45           C   tau(  45) = (   0.7000000   0.1732051   0.0000000  )
        46           C   tau(  46) = (   0.7000000   0.2886751   0.0000000  )
        47           C   tau(  47) = (   0.6000000   0.3464102   0.0000000  )
        48           C   tau(  48) = (   0.6000000   0.4618802   0.0000000  )
        49           C   tau(  49) = (   0.5000000   0.5196152   0.0000000  )
        50           C   tau(  50) = (   0.5000000   0.6350853   0.0000000  )
        51           C   tau(  51) = (   0.4000000   0.6928203   0.0000000  )
        52           C   tau(  52) = (   0.4000000   0.8082904   0.0000000  )

     number of k points=     3  Marzari-Vanderbilt smearing, width (Ry)=  0.0010
                       cart. coord. in units 2pi/alat
        k(    1) = (   0.0000000   0.0000000   0.0000000), wk =   0.5000000
        k(    2) = (   0.0000000  -0.5773503   0.0000000), wk =   1.0000000
        k(    3) = (   0.5000000  -0.2886751   0.0000000), wk =   0.5000000

     Dense  grid:  2439139 G-vectors     FFT dimensions: ( 180, 180, 200)

     Smooth grid:  1053907 G-vectors     FFT dimensions: ( 125, 125, 160)

     Estimated max dynamical RAM per process >       1.34 GB

     Estimated total dynamical RAM >       6.71 GB

     Check: negative core charge=   -0.000001

     Initial potential from superposition of free atoms

     starting charge  201.80551, renormalised to  202.00000

     negative rho (up, down):  1.096E-03 0.000E+00


---------------------------------------------------------------------------------
Carrying out rVV10 run using the following parameters:
Nqs =      20    Nr_points =    1024   r_max =   100.000
b_value =  6.30000    beta =  0.00901
     q_mesh =  0.00010000  0.00030000  0.00058939  0.00100810
               0.00161396  0.00249058  0.00375900  0.00559430
               0.00824984  0.01209221  0.01765183  0.02569619
               0.03733578  0.05417739  0.07854596  0.11380545
               0.16482331  0.23864234  0.34545298  0.50000000

Gradients computed in Reciprocal space

---------------------------------------------------------------------------------


     Starting wfcs are  202 randomized atomic wfcs

     total cpu time spent up to now is      128.7 secs

     Self-consistent Calculation

     iteration #  1     ecut=    70.00 Ry     beta= 0.70
     Davidson diagonalization with overlap
     ethr =  1.00E-02,  avg # of iterations =  2.0

     negative rho (up, down):  1.224E-03 0.000E+00

     total cpu time spent up to now is      343.9 secs

     total energy              =    -624.42378701 Ry
     Harris-Foulkes estimate   =    -628.33658441 Ry
     estimated scf accuracy    <       6.31354073 Ry

     iteration #  2     ecut=    70.00 Ry     beta= 0.70
     Davidson diagonalization with overlap
     ethr =  3.13E-03,  avg # of iterations =  8.7

     negative rho (up, down):  1.384E-03 0.000E+00

     total cpu time spent up to now is      555.7 secs

     total energy              =    -624.67403394 Ry
     Harris-Foulkes estimate   =    -626.00821762 Ry
     estimated scf accuracy    <       1.93932647 Ry

     iteration #  3     ecut=    70.00 Ry     beta= 0.70
     Davidson diagonalization with overlap
     ethr =  9.60E-04,  avg # of iterations =  6.3

     negative rho (up, down):  1.476E-03 0.000E+00

     total cpu time spent up to now is      785.3 secs

     total energy              =    -624.90143509 Ry
     Harris-Foulkes estimate   =    -626.33699220 Ry
     estimated scf accuracy    <       4.08642405 Ry

     iteration #  4     ecut=    70.00 Ry     beta= 0.70
     Davidson diagonalization with overlap
     ethr =  9.60E-04,  avg # of iterations =  4.7

     negative rho (up, down):  1.537E-03 0.000E+00

     total cpu time spent up to now is      964.7 secs

     total energy              =    -625.60798679 Ry
     Harris-Foulkes estimate   =    -625.64173342 Ry
     estimated scf accuracy    <       0.07309072 Ry

     iteration #  5     ecut=    70.00 Ry     beta= 0.70
     Davidson diagonalization with overlap
     ethr =  3.62E-05,  avg # of iterations =  6.3

     negative rho (up, down):  1.703E-03 0.000E+00

     total cpu time spent up to now is     1169.4 secs

     total energy              =    -625.62618538 Ry
     Harris-Foulkes estimate   =    -625.63025025 Ry
     estimated scf accuracy    <       0.01012471 Ry

     iteration #  6     ecut=    70.00 Ry     beta= 0.70
     Davidson diagonalization with overlap
     ethr =  5.01E-06,  avg # of iterations =  4.0

     negative rho (up, down):  1.879E-03 0.000E+00

     total cpu time spent up to now is     1361.4 secs

     total energy              =    -625.62802948 Ry
     Harris-Foulkes estimate   =    -625.62853559 Ry
     estimated scf accuracy    <       0.00093101 Ry

     iteration #  7     ecut=    70.00 Ry     beta= 0.70
     Davidson diagonalization with overlap
     ethr =  4.61E-07,  avg # of iterations = 12.3

     negative rho (up, down):  1.915E-03 0.000E+00

     total cpu time spent up to now is     1559.9 secs

     total energy              =    -625.62824586 Ry
     Harris-Foulkes estimate   =    -625.62832141 Ry
     estimated scf accuracy    <       0.00013281 Ry

     iteration #  8     ecut=    70.00 Ry     beta= 0.70
     Davidson diagonalization with overlap
     ethr =  6.57E-08,  avg # of iterations =  2.3

     negative rho (up, down):  1.921E-03 0.000E+00

     total cpu time spent up to now is     1740.5 secs

     total energy              =    -625.62827303 Ry
     Harris-Foulkes estimate   =    -625.62829753 Ry
     estimated scf accuracy    <       0.00005362 Ry

     iteration #  9     ecut=    70.00 Ry     beta= 0.70
     Davidson diagonalization with overlap
     ethr =  2.65E-08,  avg # of iterations =  2.3

     negative rho (up, down):  1.924E-03 0.000E+00

     total cpu time spent up to now is     1904.4 secs

     total energy              =    -625.62828429 Ry
     Harris-Foulkes estimate   =    -625.62828698 Ry
     estimated scf accuracy    <       0.00000547 Ry

     iteration # 10     ecut=    70.00 Ry     beta= 0.70
     Davidson diagonalization with overlap
     ethr =  2.71E-09,  avg # of iterations =  2.0

     negative rho (up, down):  1.925E-03 0.000E+00

     total cpu time spent up to now is     2076.0 secs

     End of self-consistent calculation

          k = 0.0000 0.0000 0.0000 (131685 PWs)   bands (ev):

   -21.2336 -20.3264 -20.2921 -20.2921 -20.2895 -20.2893 -20.2893 -18.4850
   -18.4579 -18.4579 -18.4549 -18.4549 -18.4546 -17.5894 -17.5650 -17.5650
   -17.5629 -17.5629 -17.5626 -15.4473 -15.4211 -15.4211 -15.4183 -15.4171
   -15.4171 -14.4240 -14.4161 -14.4161 -14.4101 -14.4101 -14.4101 -13.0843
   -13.0750 -13.0750 -13.0699 -13.0696 -13.0696 -10.7288 -10.7153 -10.7153
   -10.7089 -10.7089 -10.7089 -10.5934 -10.5934 -10.5918 -10.5872 -10.5872
   -10.5863  -9.5464  -9.2197  -9.2197  -9.2188  -9.2147  -9.2147  -9.2144
    -8.8978  -8.2422  -8.2422  -8.2390  -8.2385  -8.2385  -7.9745  -7.9745
    -7.9678  -7.9662  -7.9660  -7.9660  -7.9205  -7.9200  -7.9200  -7.9146
    -7.9146  -7.9140  -7.2940  -6.3259  -6.3259  -6.3213  -6.3205  -6.3205
    -6.3188  -6.1156  -6.1156  -6.1084  -6.1084  -6.1071  -5.8552  -5.2179
    -5.2179  -5.2105  -5.2105  -5.2101  -5.0220  -4.8505  -4.8505  -3.2343
    -3.2343  -3.2249  -3.2244  -3.2244  -3.2084  -0.4717  -0.4457  -0.4457
    -0.4301  -0.4301  -0.4300   1.3280   1.3968   1.4048   1.4048   1.4255
     1.4255   1.4278   2.2199   2.5136   2.5136   2.5827   2.5827   2.6691
     2.9134

          k = 0.0000-0.5774 0.0000 (131762 PWs)   bands (ev):

   -21.0054 -20.9915 -20.5355 -20.5240 -19.6172 -19.5970 -19.5965 -19.5949
   -19.1455 -19.1369 -18.2491 -18.2329 -18.2287 -18.2286 -16.9309 -16.9153
   -16.9127 -16.9120 -16.5243 -16.5084 -16.5078 -16.5071 -16.0279 -15.3041
   -15.2975 -14.9593 -14.1012 -14.0968 -14.0918 -14.0904 -13.6277 -13.6211
   -12.6983 -12.6908 -12.6862 -12.6850 -11.8929 -11.8907 -11.7405 -11.7349
   -11.7310 -11.7297 -10.5164 -10.5141 -10.2899 -10.2879 -10.2809 -10.2808
    -9.4532  -9.2435  -9.2412  -9.2388  -9.2317  -9.0750  -8.8733  -8.8691
    -8.8676  -8.8657  -8.7329  -8.5167  -8.3978  -8.3935  -8.3918  -8.3917
    -8.2010  -8.0091  -7.4841  -7.4812  -7.4797  -7.4792  -7.4259  -7.4244
    -7.4217  -7.3053  -7.3021  -7.1183  -7.0979  -7.0874  -6.9004  -6.6149
    -6.2509  -6.2481  -5.8849  -5.8759  -5.8754  -5.7597  -5.7550  -5.6803
    -5.3196  -5.3146  -4.4433  -4.4368  -4.4344  -4.3903  -4.2372  -4.2335
    -4.2309  -4.1782  -4.0696  -2.7537  -2.7504  -0.7303  -0.7177  -0.0748
     0.2881   0.3049   0.3236   0.3263   0.9254   0.9650   0.9706   0.9740
     1.6092   1.7324   2.2268   2.3537   2.4683   2.5449   2.5755   2.5910
     2.5911

          k = 0.5000-0.2887 0.0000 (131762 PWs)   bands (ev):

   -21.0054 -20.9915 -20.5355 -20.5240 -19.6172 -19.5970 -19.5965 -19.5949
   -19.1455 -19.1369 -18.2491 -18.2329 -18.2287 -18.2286 -16.9309 -16.9153
   -16.9127 -16.9120 -16.5243 -16.5084 -16.5078 -16.5071 -16.0279 -15.3041
   -15.2975 -14.9593 -14.1012 -14.0968 -14.0918 -14.0904 -13.6277 -13.6211
   -12.6983 -12.6908 -12.6862 -12.6850 -11.8929 -11.8907 -11.7405 -11.7349
   -11.7310 -11.7297 -10.5164 -10.5141 -10.2899 -10.2879 -10.2809 -10.2808
    -9.4532  -9.2435  -9.2412  -9.2388  -9.2317  -9.0750  -8.8733  -8.8691
    -8.8676  -8.8657  -8.7329  -8.5167  -8.3978  -8.3935  -8.3918  -8.3917
    -8.2010  -8.0091  -7.4841  -7.4812  -7.4797  -7.4792  -7.4259  -7.4244
    -7.4217  -7.3053  -7.3021  -7.1183  -7.0979  -7.0874  -6.9004  -6.6149
    -6.2509  -6.2481  -5.8849  -5.8759  -5.8754  -5.7597  -5.7550  -5.6804
    -5.3197  -5.3146  -4.4433  -4.4368  -4.4344  -4.3903  -4.2372  -4.2335
    -4.2309  -4.1782  -4.0696  -2.7537  -2.7504  -0.7303  -0.7177  -0.0748
     0.2881   0.3049   0.3236   0.3263   0.9254   0.9650   0.9706   0.9740
     1.6092   1.7324   2.2268   2.3537   2.4683   2.5449   2.5755   2.5910
     2.5911

     the Fermi energy is    -1.5971 ev

!    total energy              =    -625.62828516 Ry
     Harris-Foulkes estimate   =    -625.62828553 Ry
     estimated scf accuracy    <       0.00000022 Ry

     The total energy is the sum of the following terms:

     one-electron contribution =   -3958.93887019 Ry
     hartree contribution      =    2016.14090982 Ry
     xc contribution           =    -235.36169392 Ry
     ewald contribution        =    1552.53136913 Ry
     smearing contrib. (-TS)   =       0.00000000 Ry

     convergence has been achieved in  10 iterations

     Writing output data file gr-12.save/

     init_run     :    126.92s CPU    128.25s WALL (       1 calls)
     electrons    :   1928.06s CPU   1947.44s WALL (       1 calls)

     Called by init_run:
     wfcinit      :     85.68s CPU     86.15s WALL (       1 calls)
     potinit      :     20.46s CPU     21.03s WALL (       1 calls)
     hinit0       :     15.31s CPU     15.36s WALL (       1 calls)

     Called by electrons:
     c_bands      :   1557.64s CPU   1566.17s WALL (      10 calls)
     sum_band     :    228.38s CPU    231.84s WALL (      10 calls)
     v_of_rho     :    101.23s CPU    106.82s WALL (      11 calls)
     newd         :     50.17s CPU     52.60s WALL (      11 calls)
     mix_rho      :      2.54s CPU      2.56s WALL (      10 calls)

     Called by c_bands:
     init_us_2    :      3.93s CPU      3.98s WALL (      63 calls)
     cegterg      :   1547.95s CPU   1556.42s WALL (      30 calls)

     Called by sum_band:
     sum_band:bec :      0.02s CPU      0.02s WALL (      30 calls)
     addusdens    :     69.70s CPU     72.15s WALL (      10 calls)

     Called by *egterg:
     h_psi        :    840.95s CPU    847.15s WALL (     186 calls)
     s_psi        :    265.64s CPU    265.78s WALL (     186 calls)
     g_psi        :      1.14s CPU      1.14s WALL (     153 calls)
     cdiaghg      :     14.88s CPU     14.88s WALL (     183 calls)

     Called by h_psi:
     h_psi:pot    :    839.95s CPU    845.06s WALL (     186 calls)
     h_psi:calbec :    265.69s CPU    265.79s WALL (     186 calls)
     vloc_psi     :    308.96s CPU    313.85s WALL (     186 calls)
     add_vuspsi   :    265.30s CPU    265.41s WALL (     186 calls)

     General routines
     calbec       :    358.07s CPU    358.21s WALL (     216 calls)
     fft          :     54.09s CPU     56.01s WALL (     691 calls)
     ffts         :      0.58s CPU      0.60s WALL (      21 calls)
     fftw         :    312.15s CPU    317.06s WALL (   24484 calls)
     interpolate  :      1.39s CPU      1.42s WALL (      11 calls)

     Parallel routines
     fft_scatt_xy :     81.49s CPU     81.95s WALL (   25196 calls)
     fft_scatt_yz :     95.98s CPU    100.74s WALL (   25196 calls)

     PWSCF        :  34m15.82s CPU  34m37.11s WALL


   This run was terminated on:  15:48:39  18Jun2022            

=------------------------------------------------------------------------------=
   JOB DONE.
=------------------------------------------------------------------------------=
