
     Program PWSCF v.6.4.1 starts on 17Jun2022 at 23: 8:11 

     This program is part of the open-source Quantum ESPRESSO suite
     for quantum simulation of materials; please cite
         "P. Giannozzi et al., J. Phys.:Condens. Matter 21 395502 (2009);
         "P. Giannozzi et al., J. Phys.:Condens. Matter 29 465901 (2017);
          URL http://www.quantum-espresso.org", 
     in publications or presentations arising from this work. More details at
     http://www.quantum-espresso.org/quote

     Parallel version (MPI), running on     6 processors

     MPI processes distributed on     1 nodes
     R & G space division:  proc/nbgrp/npool/nimage =       6
     Reading input from distance-5.000000000.in

     Current dimensions of program PWSCF are:
     Max number of different atomic species (ntypx) = 10
     Max number of k-points (npk) =  40000
     Max angular momentum in pseudopotentials (lmaxx) =  3

     IMPORTANT: XC functional enforced from input :
     Exchange-correlation      = RVV10 ( 1  4 13  4 3 0)
     Any further DFT definition will be discarded
     Please, verify this is what you really want

               file H.pbe-rrkjus.UPF: wavefunction(s)  1S renormalized
               file H.pbe-rrkjus.UPF: wavefunction(s)  1S renormalized

     Subspace diagonalization in iterative solution of the eigenvalue problem:
     a serial algorithm will be used


     Parallelization info
     --------------------
     sticks:   dense  smooth     PW     G-vecs:    dense   smooth      PW
     Min        3052    1746    452               406522   175650   23198
     Max        3053    1747    453               406526   175655   23203
     Sum       18313   10477   2713              2439139  1053907  139193



     bravais-lattice index     =            4
     lattice parameter (alat)  =      23.2937  a.u.
     unit-cell volume          =   13319.7822 (a.u.)^3
     number of atoms/cell      =           52
     number of atomic types    =            3
     number of electrons       =       202.00
     number of Kohn-Sham states=          121
     kinetic-energy cutoff     =      70.0000  Ry
     charge density cutoff     =     490.0000  Ry
     convergence threshold     =      1.0E-06
     mixing beta               =       0.7000
     number of iterations used =            8  plain     mixing
     Exchange-correlation      = RVV10 ( 1  4 13  4 3 0)

     celldm(1)=  23.293684  celldm(2)=   0.000000  celldm(3)=   1.216892
     celldm(4)=   0.000000  celldm(5)=   0.000000  celldm(6)=   0.000000

     crystal axes: (cart. coord. in units of alat)
               a(1) = (   1.000000   0.000000   0.000000 )  
               a(2) = (  -0.500000   0.866025   0.000000 )  
               a(3) = (   0.000000   0.000000   1.216892 )  

     reciprocal axes: (cart. coord. in units 2 pi/alat)
               b(1) = (  1.000000  0.577350 -0.000000 )  
               b(2) = (  0.000000  1.154701  0.000000 )  
               b(3) = (  0.000000 -0.000000  0.821766 )  


     PseudoPot. # 1 for H  read from file:
     /home/cristian/Escritorio/Proyecto_Grafeno/pseudopotenciales/H.pbe-rrkjus.UPF
     MD5 check sum: 7cc9d459525c9a0585f487a71c3c9563
     Pseudo is Ultrasoft, Zval =  1.0
     Generated by new atomic code, or converted to UPF format
     Using radial grid of 1061 points,  2 beta functions with: 
                l(1) =   0
                l(2) =   0
     Q(r) pseudized with 0 coefficients 


     PseudoPot. # 2 for H  read from file:
     /home/cristian/Escritorio/Proyecto_Grafeno/pseudopotenciales/H.pbe-rrkjus.UPF
     MD5 check sum: 7cc9d459525c9a0585f487a71c3c9563
     Pseudo is Ultrasoft, Zval =  1.0
     Generated by new atomic code, or converted to UPF format
     Using radial grid of 1061 points,  2 beta functions with: 
                l(1) =   0
                l(2) =   0
     Q(r) pseudized with 0 coefficients 


     PseudoPot. # 3 for C  read from file:
     /home/cristian/Escritorio/Proyecto_Grafeno/pseudopotenciales/C.pbe-n-rrkjus_psl.1.0.0.UPF
     MD5 check sum: 1fdd950c42eb37d8afe3dd2f8d12311e
     Pseudo is Ultrasoft + core correction, Zval =  4.0
     Generated using "atomic" code by A. Dal Corso v.6.3MaX
     Using radial grid of 1073 points,  4 beta functions with: 
                l(1) =   0
                l(2) =   0
                l(3) =   1
                l(4) =   1
     Q(r) pseudized with 0 coefficients 


     vdW kernel table read from file rVV10_kernel_table
     MD5 check sum: b8e2538accc0c0b3206b45ba4daaba6c

     atomic species   valence    mass     pseudopotential
        H1             1.00     1.00794     H ( 1.00)
        H2             1.00     1.00794     H ( 1.00)
        C              4.00    12.01070     C ( 1.00)

      2 Sym. Ops. (no inversion) found



   Cartesian axes

     site n.     atom                  positions (alat units)
         1           H1  tau(   1) = (   0.2000000   0.4618802   0.4056306  )
         2           H2  tau(   2) = (   0.2000000   0.4618802   0.4666433  )
         3           C   tau(   3) = (   0.0000000   0.0000000   0.0000000  )
         4           C   tau(   4) = (   0.0000000   0.1154701   0.0000000  )
         5           C   tau(   5) = (  -0.1000000   0.1732051   0.0000000  )
         6           C   tau(   6) = (  -0.1000000   0.2886751   0.0000000  )
         7           C   tau(   7) = (  -0.2000000   0.3464102   0.0000000  )
         8           C   tau(   8) = (  -0.2000000   0.4618802   0.0000000  )
         9           C   tau(   9) = (  -0.3000000   0.5196152   0.0000000  )
        10           C   tau(  10) = (  -0.3000000   0.6350853   0.0000000  )
        11           C   tau(  11) = (  -0.4000000   0.6928203   0.0000000  )
        12           C   tau(  12) = (  -0.4000000   0.8082904   0.0000000  )
        13           C   tau(  13) = (   0.2000000   0.0000000   0.0000000  )
        14           C   tau(  14) = (   0.2000000   0.1154701   0.0000000  )
        15           C   tau(  15) = (   0.1000000   0.1732051   0.0000000  )
        16           C   tau(  16) = (   0.1000000   0.2886751   0.0000000  )
        17           C   tau(  17) = (   0.0000000   0.3464102   0.0000000  )
        18           C   tau(  18) = (   0.0000000   0.4618802   0.0000000  )
        19           C   tau(  19) = (  -0.1000000   0.5196152   0.0000000  )
        20           C   tau(  20) = (  -0.1000000   0.6350853   0.0000000  )
        21           C   tau(  21) = (  -0.2000000   0.6928203   0.0000000  )
        22           C   tau(  22) = (  -0.2000000   0.8082904   0.0000000  )
        23           C   tau(  23) = (   0.4000000   0.0000000   0.0000000  )
        24           C   tau(  24) = (   0.4000000   0.1154701   0.0000000  )
        25           C   tau(  25) = (   0.3000000   0.1732051   0.0000000  )
        26           C   tau(  26) = (   0.3000000   0.2886751   0.0000000  )
        27           C   tau(  27) = (   0.2000000   0.3464102   0.0000000  )
        28           C   tau(  28) = (   0.2000000   0.4618802   0.0000000  )
        29           C   tau(  29) = (   0.1000000   0.5196152   0.0000000  )
        30           C   tau(  30) = (   0.1000000   0.6350853   0.0000000  )
        31           C   tau(  31) = (   0.0000000   0.6928203   0.0000000  )
        32           C   tau(  32) = (   0.0000000   0.8082904   0.0000000  )
        33           C   tau(  33) = (   0.6000000   0.0000000   0.0000000  )
        34           C   tau(  34) = (   0.6000000   0.1154701   0.0000000  )
        35           C   tau(  35) = (   0.5000000   0.1732051   0.0000000  )
        36           C   tau(  36) = (   0.5000000   0.2886751   0.0000000  )
        37           C   tau(  37) = (   0.4000000   0.3464102   0.0000000  )
        38           C   tau(  38) = (   0.4000000   0.4618802   0.0000000  )
        39           C   tau(  39) = (   0.3000000   0.5196152   0.0000000  )
        40           C   tau(  40) = (   0.3000000   0.6350853   0.0000000  )
        41           C   tau(  41) = (   0.2000000   0.6928203   0.0000000  )
        42           C   tau(  42) = (   0.2000000   0.8082904   0.0000000  )
        43           C   tau(  43) = (   0.8000000   0.0000000   0.0000000  )
        44           C   tau(  44) = (   0.8000000   0.1154701   0.0000000  )
        45           C   tau(  45) = (   0.7000000   0.1732051   0.0000000  )
        46           C   tau(  46) = (   0.7000000   0.2886751   0.0000000  )
        47           C   tau(  47) = (   0.6000000   0.3464102   0.0000000  )
        48           C   tau(  48) = (   0.6000000   0.4618802   0.0000000  )
        49           C   tau(  49) = (   0.5000000   0.5196152   0.0000000  )
        50           C   tau(  50) = (   0.5000000   0.6350853   0.0000000  )
        51           C   tau(  51) = (   0.4000000   0.6928203   0.0000000  )
        52           C   tau(  52) = (   0.4000000   0.8082904   0.0000000  )

     number of k points=     3  Marzari-Vanderbilt smearing, width (Ry)=  0.0010
                       cart. coord. in units 2pi/alat
        k(    1) = (   0.0000000   0.0000000   0.0000000), wk =   0.5000000
        k(    2) = (   0.0000000  -0.5773503   0.0000000), wk =   1.0000000
        k(    3) = (   0.5000000  -0.2886751   0.0000000), wk =   0.5000000

     Dense  grid:  2439139 G-vectors     FFT dimensions: ( 180, 180, 200)

     Smooth grid:  1053907 G-vectors     FFT dimensions: ( 125, 125, 160)

     Estimated max dynamical RAM per process >       1.12 GB

     Estimated total dynamical RAM >       6.72 GB

     Check: negative core charge=   -0.000001

     Initial potential from superposition of free atoms

     starting charge  201.80551, renormalised to  202.00000

     negative rho (up, down):  7.605E-04 0.000E+00


---------------------------------------------------------------------------------
Carrying out rVV10 run using the following parameters:
Nqs =      20    Nr_points =    1024   r_max =   100.000
b_value =  6.30000    beta =  0.00901
     q_mesh =  0.00010000  0.00030000  0.00058939  0.00100810
               0.00161396  0.00249058  0.00375900  0.00559430
               0.00824984  0.01209221  0.01765183  0.02569619
               0.03733578  0.05417739  0.07854596  0.11380545
               0.16482331  0.23864234  0.34545298  0.50000000

Gradients computed in Reciprocal space

---------------------------------------------------------------------------------


     Starting wfcs are  202 randomized atomic wfcs

     total cpu time spent up to now is      132.4 secs

     Self-consistent Calculation

     iteration #  1     ecut=    70.00 Ry     beta= 0.70
     Davidson diagonalization with overlap
     ethr =  1.00E-02,  avg # of iterations =  2.0

     negative rho (up, down):  7.499E-04 0.000E+00

     total cpu time spent up to now is      377.2 secs

     total energy              =    -624.75703352 Ry
     Harris-Foulkes estimate   =    -628.29674499 Ry
     estimated scf accuracy    <       5.88516217 Ry

     iteration #  2     ecut=    70.00 Ry     beta= 0.70
     Davidson diagonalization with overlap
     ethr =  2.91E-03,  avg # of iterations =  9.3

     negative rho (up, down):  8.991E-04 0.000E+00

     total cpu time spent up to now is      599.3 secs

     total energy              =    -625.64500181 Ry
     Harris-Foulkes estimate   =    -625.67578325 Ry
     estimated scf accuracy    <       0.11066656 Ry

     iteration #  3     ecut=    70.00 Ry     beta= 0.70
     Davidson diagonalization with overlap
     ethr =  5.48E-05,  avg # of iterations = 10.7

     negative rho (up, down):  9.993E-04 0.000E+00

     total cpu time spent up to now is      818.4 secs

     total energy              =    -625.64945619 Ry
     Harris-Foulkes estimate   =    -625.66126954 Ry
     estimated scf accuracy    <       0.02079751 Ry

     iteration #  4     ecut=    70.00 Ry     beta= 0.70
     Davidson diagonalization with overlap
     ethr =  1.03E-05,  avg # of iterations = 13.3

     negative rho (up, down):  1.202E-03 0.000E+00

     total cpu time spent up to now is     1081.5 secs

     total energy              =    -625.64816238 Ry
     Harris-Foulkes estimate   =    -625.67061848 Ry
     estimated scf accuracy    <       0.05969117 Ry

     iteration #  5     ecut=    70.00 Ry     beta= 0.70
     Davidson diagonalization with overlap
     ethr =  1.03E-05,  avg # of iterations = 11.0

     negative rho (up, down):  1.522E-03 0.000E+00

     total cpu time spent up to now is     1314.4 secs

     total energy              =    -625.65858266 Ry
     Harris-Foulkes estimate   =    -625.65880504 Ry
     estimated scf accuracy    <       0.00041101 Ry

     iteration #  6     ecut=    70.00 Ry     beta= 0.70
     Davidson diagonalization with overlap
     ethr =  2.03E-07,  avg # of iterations =  5.3

     negative rho (up, down):  1.666E-03 0.000E+00

     total cpu time spent up to now is     1536.7 secs

     total energy              =    -625.65867599 Ry
     Harris-Foulkes estimate   =    -625.65874880 Ry
     estimated scf accuracy    <       0.00011105 Ry

     iteration #  7     ecut=    70.00 Ry     beta= 0.70
     Davidson diagonalization with overlap
     ethr =  5.50E-08,  avg # of iterations =  2.0

     negative rho (up, down):  1.677E-03 0.000E+00

     total cpu time spent up to now is     1738.9 secs

     total energy              =    -625.65869822 Ry
     Harris-Foulkes estimate   =    -625.65870005 Ry
     estimated scf accuracy    <       0.00000115 Ry

     iteration #  8     ecut=    70.00 Ry     beta= 0.70
     Davidson diagonalization with overlap
     ethr =  5.70E-10,  avg # of iterations =  3.0

     negative rho (up, down):  1.685E-03 0.000E+00

     total cpu time spent up to now is     1973.4 secs

     End of self-consistent calculation

          k = 0.0000 0.0000 0.0000 (131685 PWs)   bands (ev):

   -21.1893 -20.2534 -20.2525 -20.2525 -20.2524 -20.2523 -20.2523 -18.4175
   -18.4174 -18.4173 -18.4170 -18.4170 -18.4168 -17.5248 -17.5247 -17.5246
   -17.5244 -17.5244 -17.5243 -15.3802 -15.3801 -15.3801 -15.3798 -15.3796
   -15.3796 -14.3720 -14.3720 -14.3720 -14.3717 -14.3717 -14.3717 -13.0313
   -13.0312 -13.0312 -13.0311 -13.0311 -13.0310 -10.6708 -10.6707 -10.6706
   -10.6705 -10.6704 -10.6704 -10.5485 -10.5485 -10.5483 -10.5481 -10.5481
   -10.5481  -9.3220  -9.1757  -9.1757  -9.1755  -9.1754  -9.1754  -9.1754
    -8.2054  -8.2039  -8.2039  -8.2035  -8.2035  -8.2035  -7.9283  -7.9283
    -7.9283  -7.9280  -7.9279  -7.9279  -7.8830  -7.8761  -7.8761  -7.8759
    -7.8759  -7.8759  -7.8758  -6.2816  -6.2816  -6.2812  -6.2812  -6.2812
    -6.2811  -6.0731  -6.0729  -6.0728  -6.0724  -6.0724  -6.0723  -5.1750
    -5.1748  -5.1747  -5.1745  -5.1745  -5.1743  -4.8098  -4.8098  -3.1896
    -3.1895  -3.1895  -3.1892  -3.1888  -3.1888  -0.3944  -0.3943  -0.3943
    -0.3940  -0.3938  -0.3937   1.3023   1.4617   1.4618   1.4618   1.4622
     1.4622   1.4623   2.1733   2.4710   2.5384   2.5384   2.5963   2.5963
     2.6391

          k = 0.0000-0.5774 0.0000 (131762 PWs)   bands (ev):

   -20.9544 -20.9539 -20.4860 -20.4856 -19.5578 -19.5576 -19.5575 -19.5573
   -19.0977 -19.0977 -18.1915 -18.1914 -18.1911 -18.1910 -16.8743 -16.8742
   -16.8739 -16.8739 -16.4686 -16.4686 -16.4684 -16.4684 -15.9842 -15.2573
   -15.2573 -14.9170 -14.0525 -14.0524 -14.0522 -14.0521 -13.5810 -13.5810
   -12.6473 -12.6471 -12.6469 -12.6468 -11.8505 -11.8505 -11.6912 -11.6912
   -11.6911 -11.6911 -10.4719 -10.4719 -10.2434 -10.2430 -10.2429 -10.2428
    -9.2000  -9.2000  -9.1999  -9.1999  -9.0400  -9.0393  -8.8278  -8.8277
    -8.8274  -8.8274  -8.4805  -8.4800  -8.3529  -8.3528  -8.3526  -8.3525
    -8.1601  -7.8831  -7.4403  -7.4403  -7.4401  -7.4401  -7.3870  -7.3867
    -7.3866  -7.3863  -7.2630  -7.2628  -7.0559  -7.0556  -6.8612  -6.8610
    -6.2089  -6.2086  -5.8406  -5.8404  -5.8399  -5.8398  -5.7165  -5.7161
    -5.2765  -5.2762  -4.3992  -4.3988  -4.3987  -4.3986  -4.1953  -4.1952
    -4.1947  -4.1947  -4.0485  -2.7133  -2.7132  -0.6769  -0.6768  -0.0241
     0.3613   0.3614   0.3619   0.3620   1.0095   1.0099   1.0100   1.0101
     1.6109   1.6258   2.2391   2.2475   2.4320   2.5424   2.6283   2.6286
     2.6288

          k = 0.5000-0.2887 0.0000 (131762 PWs)   bands (ev):

   -20.9544 -20.9539 -20.4860 -20.4856 -19.5578 -19.5576 -19.5575 -19.5573
   -19.0978 -19.0977 -18.1915 -18.1915 -18.1911 -18.1911 -16.8743 -16.8741
   -16.8739 -16.8739 -16.4686 -16.4686 -16.4684 -16.4684 -15.9842 -15.2573
   -15.2573 -14.9170 -14.0525 -14.0524 -14.0522 -14.0521 -13.5810 -13.5810
   -12.6473 -12.6471 -12.6469 -12.6469 -11.8505 -11.8505 -11.6912 -11.6912
   -11.6911 -11.6911 -10.4719 -10.4719 -10.2434 -10.2431 -10.2429 -10.2428
    -9.2000  -9.2000  -9.1999  -9.1999  -9.0400  -9.0393  -8.8278  -8.8277
    -8.8274  -8.8274  -8.4805  -8.4801  -8.3529  -8.3528  -8.3525  -8.3525
    -8.1601  -7.8831  -7.4403  -7.4402  -7.4401  -7.4401  -7.3870  -7.3867
    -7.3866  -7.3863  -7.2630  -7.2628  -7.0558  -7.0556  -6.8612  -6.8610
    -6.2089  -6.2086  -5.8406  -5.8405  -5.8398  -5.8398  -5.7165  -5.7161
    -5.2765  -5.2762  -4.3992  -4.3988  -4.3987  -4.3986  -4.1952  -4.1952
    -4.1947  -4.1947  -4.0485  -2.7133  -2.7133  -0.6769  -0.6768  -0.0241
     0.3613   0.3614   0.3619   0.3620   1.0095   1.0099   1.0100   1.0101
     1.6109   1.6258   2.2391   2.2475   2.4320   2.5424   2.6283   2.6287
     2.6288

     the Fermi energy is    -1.8117 ev

!    total energy              =    -625.65869754 Ry
     Harris-Foulkes estimate   =    -625.65869878 Ry
     estimated scf accuracy    <       0.00000032 Ry

     The total energy is the sum of the following terms:

     one-electron contribution =   -3895.32367873 Ry
     hartree contribution      =    1984.57855736 Ry
     xc contribution           =    -235.29646601 Ry
     ewald contribution        =    1520.38288984 Ry
     smearing contrib. (-TS)   =       0.00000000 Ry

     convergence has been achieved in   8 iterations

     Writing output data file gr-12.save/

     init_run     :    130.34s CPU    131.77s WALL (       1 calls)
     electrons    :   1824.38s CPU   1841.16s WALL (       1 calls)

     Called by init_run:
     wfcinit      :     96.58s CPU     97.09s WALL (       1 calls)
     potinit      :     17.18s CPU     17.73s WALL (       1 calls)
     hinit0       :     10.30s CPU     10.34s WALL (       1 calls)

     Called by electrons:
     c_bands      :   1498.94s CPU   1506.78s WALL (       8 calls)
     sum_band     :    202.12s CPU    204.85s WALL (       8 calls)
     v_of_rho     :     90.29s CPU     94.87s WALL (       9 calls)
     newd         :     44.37s CPU     46.69s WALL (       9 calls)
     mix_rho      :      2.09s CPU      2.13s WALL (       8 calls)

     Called by c_bands:
     init_us_2    :      3.44s CPU      3.47s WALL (      51 calls)
     cegterg      :   1489.74s CPU   1497.56s WALL (      24 calls)

     Called by sum_band:
     sum_band:bec :      0.02s CPU      0.02s WALL (      24 calls)
     addusdens    :     57.06s CPU     59.03s WALL (       8 calls)

     Called by *egterg:
     h_psi        :    804.04s CPU    809.86s WALL (     197 calls)
     s_psi        :    254.85s CPU    254.92s WALL (     197 calls)
     g_psi        :      0.86s CPU      0.87s WALL (     170 calls)
     cdiaghg      :     19.29s CPU     19.29s WALL (     194 calls)

     Called by h_psi:
     h_psi:pot    :    803.19s CPU    808.09s WALL (     197 calls)
     h_psi:calbec :    255.65s CPU    255.70s WALL (     197 calls)
     vloc_psi     :    292.26s CPU    297.10s WALL (     197 calls)
     add_vuspsi   :    255.27s CPU    255.30s WALL (     197 calls)

     General routines
     calbec       :    339.26s CPU    339.31s WALL (     221 calls)
     fft          :     53.62s CPU     55.49s WALL (     565 calls)
     ffts         :      0.55s CPU      0.56s WALL (      17 calls)
     fftw         :    298.95s CPU    303.65s WALL (   20596 calls)
     interpolate  :      1.21s CPU      1.24s WALL (       9 calls)

     Parallel routines
     fft_scatt_xy :     76.06s CPU     76.29s WALL (   21178 calls)
     fft_scatt_yz :    114.39s CPU    119.47s WALL (   21178 calls)

     PWSCF        :  32m35.73s CPU  32m54.62s WALL


   This run was terminated on:  23:41: 6  17Jun2022            

=------------------------------------------------------------------------------=
   JOB DONE.
=------------------------------------------------------------------------------=
