
     Program PWSCF v.6.4.1 starts on  9Mar2022 at 23:50:32 

     This program is part of the open-source Quantum ESPRESSO suite
     for quantum simulation of materials; please cite
         "P. Giannozzi et al., J. Phys.:Condens. Matter 21 395502 (2009);
         "P. Giannozzi et al., J. Phys.:Condens. Matter 29 465901 (2017);
          URL http://www.quantum-espresso.org", 
     in publications or presentations arising from this work. More details at
     http://www.quantum-espresso.org/quote

     Parallel version (MPI), running on     6 processors

     MPI processes distributed on     1 nodes
     R & G space division:  proc/nbgrp/npool/nimage =       6
     Reading input from degauss-0.01.in

     Current dimensions of program PWSCF are:
     Max number of different atomic species (ntypx) = 10
     Max number of k-points (npk) =  40000
     Max angular momentum in pseudopotentials (lmaxx) =  3
               file Cr.pbe-spn-rrkjus_psl.1.0.0.UPF: wavefunction(s)  3P renormalized
               file Cr.pbe-spn-rrkjus_psl.1.0.0.UPF: wavefunction(s)  3P renormalized

     Subspace diagonalization in iterative solution of the eigenvalue problem:
     a serial algorithm will be used

     Message from routine setup:
     DEPRECATED: symmetry with ibrav=0, use correct ibrav instead

     Parallelization info
     --------------------
     sticks:   dense  smooth     PW     G-vecs:    dense   smooth      PW
     Min         320     129     38                10576     2689     433
     Max         321     131     40                10577     2690     434
     Sum        1925     777    233                63461    16135    2601



     bravais-lattice index     =            0
     lattice parameter (alat)  =       5.4991  a.u.
     unit-cell volume          =     166.2936 (a.u.)^3
     number of atoms/cell      =            2
     number of atomic types    =            2
     number of electrons       =        28.00
     number of Kohn-Sham states=           18
     kinetic-energy cutoff     =      80.0000  Ry
     charge density cutoff     =     800.0000  Ry
     convergence threshold     =      1.0E-06
     mixing beta               =       0.7000
     number of iterations used =            8  plain     mixing
     Exchange-correlation      = PBE ( 1  4  3  4 0 0)

     celldm(1)=   5.499103  celldm(2)=   0.000000  celldm(3)=   0.000000
     celldm(4)=   0.000000  celldm(5)=   0.000000  celldm(6)=   0.000000

     crystal axes: (cart. coord. in units of alat)
               a(1) = (   1.000000   0.000000   0.000000 )  
               a(2) = (   0.000000   1.000000   0.000000 )  
               a(3) = (   0.000000   0.000000   1.000000 )  

     reciprocal axes: (cart. coord. in units 2 pi/alat)
               b(1) = (  1.000000  0.000000  0.000000 )  
               b(2) = (  0.000000  1.000000  0.000000 )  
               b(3) = (  0.000000  0.000000  1.000000 )  


     PseudoPot. # 1 for Cr read from file:
     /home/cristian/Escritorio/Proyecto_Grafeno/pseudopotenciales/Cr.pbe-spn-rrkjus_psl.1.0.0.UPF
     MD5 check sum: 793d051e4f89dd1e3290b85340a92c0a
     Pseudo is Ultrasoft + core correction, Zval = 14.0
     Generated using "atomic" code by A. Dal Corso v.6.2.2
     Using radial grid of 1183 points,  6 beta functions with: 
                l(1) =   0
                l(2) =   0
                l(3) =   1
                l(4) =   1
                l(5) =   2
                l(6) =   2
     Q(r) pseudized with 0 coefficients 


     PseudoPot. # 2 for Cr read from file:
     /home/cristian/Escritorio/Proyecto_Grafeno/pseudopotenciales/Cr.pbe-spn-rrkjus_psl.1.0.0.UPF
     MD5 check sum: 793d051e4f89dd1e3290b85340a92c0a
     Pseudo is Ultrasoft + core correction, Zval = 14.0
     Generated using "atomic" code by A. Dal Corso v.6.2.2
     Using radial grid of 1183 points,  6 beta functions with: 
                l(1) =   0
                l(2) =   0
                l(3) =   1
                l(4) =   1
                l(5) =   2
                l(6) =   2
     Q(r) pseudized with 0 coefficients 


     atomic species   valence    mass     pseudopotential
        Cr1           14.00    51.99610     Cr( 1.00)
        Cr2           14.00    51.99610     Cr( 1.00)

     Starting magnetic structure 
     atomic species   magnetization
        Cr1          0.100
        Cr2         -0.100

     48 Sym. Ops., with inversion, found



   Cartesian axes

     site n.     atom                  positions (alat units)
         1           Cr1 tau(   1) = (   0.0000000   0.0000000   0.0000000  )
         2           Cr2 tau(   2) = (   0.5000000   0.5000000   0.5000000  )

     number of k points=    20  gaussian smearing, width (Ry)=  0.0100
                       cart. coord. in units 2pi/alat
        k(    1) = (   0.0625000   0.0625000   0.0625000), wk =   0.0156250
        k(    2) = (   0.0625000   0.0625000   0.1875000), wk =   0.0468750
        k(    3) = (   0.0625000   0.0625000   0.3125000), wk =   0.0468750
        k(    4) = (   0.0625000   0.0625000   0.4375000), wk =   0.0468750
        k(    5) = (   0.0625000   0.1875000   0.1875000), wk =   0.0468750
        k(    6) = (   0.0625000   0.1875000   0.3125000), wk =   0.0937500
        k(    7) = (   0.0625000   0.1875000   0.4375000), wk =   0.0937500
        k(    8) = (   0.0625000   0.3125000   0.3125000), wk =   0.0468750
        k(    9) = (   0.0625000   0.3125000   0.4375000), wk =   0.0937500
        k(   10) = (   0.0625000   0.4375000   0.4375000), wk =   0.0468750
        k(   11) = (   0.1875000   0.1875000   0.1875000), wk =   0.0156250
        k(   12) = (   0.1875000   0.1875000   0.3125000), wk =   0.0468750
        k(   13) = (   0.1875000   0.1875000   0.4375000), wk =   0.0468750
        k(   14) = (   0.1875000   0.3125000   0.3125000), wk =   0.0468750
        k(   15) = (   0.1875000   0.3125000   0.4375000), wk =   0.0937500
        k(   16) = (   0.1875000   0.4375000   0.4375000), wk =   0.0468750
        k(   17) = (   0.3125000   0.3125000   0.3125000), wk =   0.0156250
        k(   18) = (   0.3125000   0.3125000   0.4375000), wk =   0.0468750
        k(   19) = (   0.3125000   0.4375000   0.4375000), wk =   0.0468750
        k(   20) = (   0.4375000   0.4375000   0.4375000), wk =   0.0156250

     Dense  grid:    63461 G-vectors     FFT dimensions: (  50,  50,  50)

     Smooth grid:    16135 G-vectors     FFT dimensions: (  32,  32,  32)

     Estimated max dynamical RAM per process >      48.55 MB

     Estimated total dynamical RAM >     291.30 MB
     Generating pointlists ...
     new r_m :   0.3572 (alat units)  1.9645 (a.u.) for type    1
     new r_m :   0.3572 (alat units)  1.9645 (a.u.) for type    2

     Check: negative core charge=   -0.000002

     Initial potential from superposition of free atoms

     starting charge   27.99845, renormalised to   28.00000
     Starting wfcs are   20 randomized atomic wfcs

     total cpu time spent up to now is        2.1 secs

     Self-consistent Calculation

     iteration #  1     ecut=    80.00 Ry     beta= 0.70
     Davidson diagonalization with overlap
     ethr =  1.00E-02,  avg # of iterations =  2.5

     Threshold (ethr) on eigenvalues was too large:
     Diagonalizing with lowered threshold

     Davidson diagonalization with overlap
     ethr =  6.38E-04,  avg # of iterations =  2.3

     total cpu time spent up to now is        3.7 secs

     total energy              =    -349.90128734 Ry
     Harris-Foulkes estimate   =    -350.02677086 Ry
     estimated scf accuracy    <       0.19149106 Ry

     total magnetization       =    -0.00 Bohr mag/cell
     absolute magnetization    =     2.15 Bohr mag/cell

     iteration #  2     ecut=    80.00 Ry     beta= 0.70
     Davidson diagonalization with overlap
     ethr =  6.84E-04,  avg # of iterations =  3.1

     total cpu time spent up to now is        4.9 secs

     total energy              =    -349.93396344 Ry
     Harris-Foulkes estimate   =    -350.05693031 Ry
     estimated scf accuracy    <       0.26791670 Ry

     total magnetization       =     0.00 Bohr mag/cell
     absolute magnetization    =     2.72 Bohr mag/cell

     iteration #  3     ecut=    80.00 Ry     beta= 0.70
     Davidson diagonalization with overlap
     ethr =  6.84E-04,  avg # of iterations =  3.0

     total cpu time spent up to now is        5.8 secs

     total energy              =    -349.98794286 Ry
     Harris-Foulkes estimate   =    -349.98769598 Ry
     estimated scf accuracy    <       0.00140083 Ry

     total magnetization       =     0.00 Bohr mag/cell
     absolute magnetization    =     2.49 Bohr mag/cell

     iteration #  4     ecut=    80.00 Ry     beta= 0.70
     Davidson diagonalization with overlap
     ethr =  5.00E-06,  avg # of iterations =  4.0

     total cpu time spent up to now is        7.2 secs

     total energy              =    -349.98634357 Ry
     Harris-Foulkes estimate   =    -349.99118630 Ry
     estimated scf accuracy    <       0.05059078 Ry

     total magnetization       =    -0.00 Bohr mag/cell
     absolute magnetization    =     2.58 Bohr mag/cell

     iteration #  5     ecut=    80.00 Ry     beta= 0.70
     Davidson diagonalization with overlap
     ethr =  5.00E-06,  avg # of iterations =  3.9

     total cpu time spent up to now is        8.2 secs

     total energy              =    -349.98887932 Ry
     Harris-Foulkes estimate   =    -349.98878494 Ry
     estimated scf accuracy    <       0.00012950 Ry

     total magnetization       =     0.00 Bohr mag/cell
     absolute magnetization    =     2.60 Bohr mag/cell

     iteration #  6     ecut=    80.00 Ry     beta= 0.70
     Davidson diagonalization with overlap
     ethr =  4.63E-07,  avg # of iterations =  3.5

     total cpu time spent up to now is        9.1 secs

     total energy              =    -349.98872816 Ry
     Harris-Foulkes estimate   =    -349.98892502 Ry
     estimated scf accuracy    <       0.00008674 Ry

     total magnetization       =     0.00 Bohr mag/cell
     absolute magnetization    =     2.67 Bohr mag/cell

     iteration #  7     ecut=    80.00 Ry     beta= 0.70
     Davidson diagonalization with overlap
     ethr =  3.10E-07,  avg # of iterations =  4.5

     total cpu time spent up to now is       10.2 secs

     total energy              =    -349.98909886 Ry
     Harris-Foulkes estimate   =    -349.98924644 Ry
     estimated scf accuracy    <       0.00002776 Ry

     total magnetization       =     0.00 Bohr mag/cell
     absolute magnetization    =     2.88 Bohr mag/cell

     iteration #  8     ecut=    80.00 Ry     beta= 0.70
     Davidson diagonalization with overlap
     ethr =  9.92E-08,  avg # of iterations =  4.7

     Magnetic moment per site:
     atom:    1    charge:   12.2789    magn:    1.4102    constr:    0.0000
     atom:    2    charge:   12.2784    magn:   -1.4101    constr:    0.0000

     total cpu time spent up to now is       11.4 secs

     End of self-consistent calculation

 ------ SPIN UP ------------


          k = 0.0625 0.0625 0.0625 (  2013 PWs)   bands (ev):

   -54.1952 -52.6686 -25.5251 -25.5251 -25.5135 -23.8899 -23.8761 -23.8761
    10.7063  14.3314  14.3314  17.2161  17.2161  17.4360  19.3639  19.3639
    20.2722  20.6698

          k = 0.0625 0.0625 0.1875 (  2003 PWs)   bands (ev):

   -54.1890 -52.6686 -25.5520 -25.5112 -25.5032 -23.9340 -23.8856 -23.8848
    11.3286  14.6356  14.6372  17.0878  17.1435  17.6591  18.9977  19.5301
    19.5754  20.0106

          k = 0.0625 0.0625 0.3125 (  2003 PWs)   bands (ev):

   -54.1802 -52.6685 -25.5875 -25.4911 -25.4911 -23.9975 -23.8995 -23.8955
    12.4480  14.9626  15.2038  17.0345  17.0521  17.8089  18.3744  19.0515
    19.2316  19.7775

          k = 0.0625 0.0625 0.4375 (  2011 PWs)   bands (ev):

   -54.1739 -52.6685 -25.6122 -25.4828 -25.4767 -24.0420 -23.9095 -23.9032
    13.7542  14.7820  15.8838  16.8183  17.1485  17.7089  17.8201  18.7295
    19.0617  19.9170

          k = 0.0625 0.1875 0.1875 (  1999 PWs)   bands (ev):

   -54.1836 -52.6675 -25.5668 -25.5232 -25.4974 -23.9540 -23.8992 -23.8916
    11.9018  14.8278  15.0016  16.8089  16.9722  17.7435  19.0821  19.1506
    19.4412  19.6194

          k = 0.0625 0.1875 0.3125 (  2012 PWs)   bands (ev):

   -54.1759 -52.6661 -25.6016 -25.5312 -25.4850 -23.9894 -23.9134 -23.8981
    12.8958  15.0215  15.5448  16.6231  16.8349  17.3844  18.7833  19.0599
    19.3886  19.6727

          k = 0.0625 0.1875 0.4375 (  2008 PWs)   bands (ev):

   -54.1704 -52.6651 -25.6285 -25.5368 -25.4744 -24.0154 -23.9230 -23.9013
    13.9821  14.7829  16.0511  16.5170  16.8747  17.0515  18.5026  18.8732
    19.6565  20.1817

          k = 0.0625 0.3125 0.3125 (  2007 PWs)   bands (ev):

   -54.1698 -52.6627 -25.6271 -25.5829 -25.4755 -23.9823 -23.9299 -23.9002
    13.5448  14.8200  16.2492  16.3239  16.7888  16.9542  18.8744  19.2196
    19.5606  20.0019

          k = 0.0625 0.3125 0.4375 (  2016 PWs)   bands (ev):

   -54.1655 -52.6603 -25.6524 -25.6124 -25.4683 -23.9812 -23.9396 -23.8997
    14.0756  14.4826  16.1696  16.3618  16.9234  17.4381  18.9846  19.2048
    19.7995  20.6486

          k = 0.0625 0.4375 0.4375 (  2020 PWs)   bands (ev):

   -54.1620 -52.6568 -25.6705 -25.6633 -25.4640 -23.9594 -23.9504 -23.8984
    14.0318  14.2244  15.9418  16.0062  18.0464  18.4030  19.2014  19.4956
    19.5095  20.5514

          k = 0.1875 0.1875 0.1875 (  1992 PWs)   bands (ev):

   -54.1787 -52.6658 -25.5501 -25.5501 -25.5159 -23.9528 -23.9115 -23.9115
    12.4556  15.1892  15.1892  16.6467  16.6467  17.2182  19.3197  19.3197
    19.3469  20.1016

          k = 0.1875 0.1875 0.3125 (  2002 PWs)   bands (ev):

   -54.1719 -52.6634 -25.5978 -25.5325 -25.5260 -23.9765 -23.9295 -23.9139
    13.3869  15.4743  15.5083  16.4051  16.4976  16.7581  19.1025  19.4251
    19.5556  19.9827

          k = 0.1875 0.1875 0.4375 (  2014 PWs)   bands (ev):

   -54.1670 -52.6617 -25.6323 -25.5434 -25.5086 -24.0015 -23.9426 -23.9070
    14.3410  15.0695  15.8554  16.1483  16.5981  16.9623  18.8912  19.0531
    19.4897  20.2841

          k = 0.1875 0.3125 0.3125 (  2011 PWs)   bands (ev):

   -54.1662 -52.6596 -25.6062 -25.5845 -25.5189 -23.9741 -23.9467 -23.9269
    14.0869  15.2706  16.0649  16.2263  16.3111  16.4760  19.2567  19.4188
    19.5219  20.2171

          k = 0.1875 0.3125 0.4375 (  2010 PWs)   bands (ev):

   -54.1622 -52.6568 -25.6394 -25.5992 -25.5079 -23.9853 -23.9616 -23.9209
    14.5474  14.9493  15.9298  16.0878  16.6186  17.0887  19.1495  19.3780
    19.4747  20.2911

          k = 0.1875 0.4375 0.4375 (  2027 PWs)   bands (ev):

   -54.1588 -52.6534 -25.6465 -25.6433 -25.5002 -23.9775 -23.9706 -23.9318
    14.4625  14.7571  15.8253  15.8607  17.5498  17.5846  19.1953  19.2308
    19.6988  20.3171

          k = 0.3125 0.3125 0.3125 (  2016 PWs)   bands (ev):

   -54.1611 -52.6551 -25.5905 -25.5759 -25.5759 -23.9713 -23.9713 -23.9560
    14.8690  15.6928  15.8413  15.8413  16.2446  16.2446  19.3667  19.3667
    19.8777  19.8777

          k = 0.3125 0.3125 0.4375 (  2019 PWs)   bands (ev):

   -54.1575 -52.6520 -25.6233 -25.5875 -25.5538 -23.9928 -23.9892 -23.9531
    15.0519  15.5247  15.6944  16.0742  16.1761  16.8387  19.2268  19.2569
    19.7921  20.2108

          k = 0.3125 0.4375 0.4375 (  2001 PWs)   bands (ev):

   -54.1542 -52.6486 -25.6144 -25.6113 -25.5508 -24.0041 -24.0002 -23.9783
    15.0718  15.5616  15.6808  15.7863  16.8354  16.9114  19.1299  19.1983
    20.0202  20.2969

          k = 0.4375 0.4375 0.4375 (  1977 PWs)   bands (ev):

   -54.1509 -52.6452 -25.5942 -25.5856 -25.5856 -24.0220 -24.0220 -24.0124
    15.4370  15.5992  15.5992  16.4515  16.5068  16.5068  19.1099  19.1099
    20.3055  20.3055

 ------ SPIN DOWN ----------


          k = 0.0625 0.0625 0.0625 (  2013 PWs)   bands (ev):

   -54.1952 -52.6685 -25.5249 -25.5249 -25.5132 -23.8902 -23.8763 -23.8763
    10.7063  14.3315  14.3315  17.2162  17.2162  17.4362  19.3638  19.3638
    20.2721  20.6697

          k = 0.0625 0.0625 0.1875 (  2003 PWs)   bands (ev):

   -54.1889 -52.6685 -25.5517 -25.5109 -25.5029 -23.9343 -23.8859 -23.8851
    11.3286  14.6356  14.6374  17.0879  17.1437  17.6593  18.9976  19.5300
    19.5752  20.0105

          k = 0.0625 0.0625 0.3125 (  2003 PWs)   bands (ev):

   -54.1801 -52.6684 -25.5872 -25.4908 -25.4908 -23.9978 -23.8997 -23.8958
    12.4480  14.9627  15.2039  17.0347  17.0523  17.8092  18.3742  19.0512
    19.2315  19.7774

          k = 0.0625 0.0625 0.4375 (  2011 PWs)   bands (ev):

   -54.1739 -52.6684 -25.6119 -25.4825 -25.4764 -24.0423 -23.9098 -23.9035
    13.7542  14.7820  15.8841  16.8184  17.1488  17.7091  17.8200  18.7292
    19.0616  19.9168

          k = 0.0625 0.1875 0.1875 (  1999 PWs)   bands (ev):

   -54.1835 -52.6674 -25.5665 -25.5229 -25.4971 -23.9543 -23.8994 -23.8918
    11.9018  14.8279  15.0017  16.8090  16.9724  17.7438  19.0820  19.1504
    19.4411  19.6192

          k = 0.0625 0.1875 0.3125 (  2012 PWs)   bands (ev):

   -54.1758 -52.6660 -25.6013 -25.5309 -25.4847 -23.9897 -23.9136 -23.8984
    12.8958  15.0216  15.5449  16.6232  16.8351  17.3846  18.7832  19.0598
    19.3884  19.6726

          k = 0.0625 0.1875 0.4375 (  2008 PWs)   bands (ev):

   -54.1704 -52.6650 -25.6282 -25.5365 -25.4741 -24.0157 -23.9232 -23.9016
    13.9822  14.7830  16.0513  16.5171  16.8748  17.0516  18.5024  18.8731
    19.6565  20.1816

          k = 0.0625 0.3125 0.3125 (  2007 PWs)   bands (ev):

   -54.1698 -52.6626 -25.6268 -25.5826 -25.4752 -23.9826 -23.9302 -23.9005
    13.5449  14.8201  16.2493  16.3240  16.7889  16.9544  18.8742  19.2195
    19.5605  20.0018

          k = 0.0625 0.3125 0.4375 (  2016 PWs)   bands (ev):

   -54.1655 -52.6602 -25.6521 -25.6121 -25.4680 -23.9815 -23.9399 -23.9000
    14.0757  14.4827  16.1698  16.3619  16.9236  17.4381  18.9845  19.2047
    19.7995  20.6485

          k = 0.0625 0.4375 0.4375 (  2020 PWs)   bands (ev):

   -54.1620 -52.6567 -25.6702 -25.6630 -25.4637 -23.9596 -23.9507 -23.8987
    14.0318  14.2245  15.9419  16.0063  18.0465  18.4030  19.2014  19.4957
    19.5093  20.5512

          k = 0.1875 0.1875 0.1875 (  1992 PWs)   bands (ev):

   -54.1787 -52.6657 -25.5498 -25.5498 -25.5156 -23.9530 -23.9117 -23.9117
    12.4556  15.1893  15.1893  16.6468  16.6468  17.2184  19.3196  19.3196
    19.3467  20.1015

          k = 0.1875 0.1875 0.3125 (  2002 PWs)   bands (ev):

   -54.1718 -52.6633 -25.5975 -25.5322 -25.5257 -23.9768 -23.9298 -23.9141
    13.3869  15.4744  15.5084  16.4052  16.4977  16.7582  19.1024  19.4250
    19.5556  19.9826

          k = 0.1875 0.1875 0.4375 (  2014 PWs)   bands (ev):

   -54.1670 -52.6616 -25.6320 -25.5431 -25.5083 -24.0018 -23.9429 -23.9073
    14.3411  15.0696  15.8555  16.1485  16.5982  16.9623  18.8910  19.0530
    19.4898  20.2839

          k = 0.1875 0.3125 0.3125 (  2011 PWs)   bands (ev):

   -54.1662 -52.6595 -25.6059 -25.5842 -25.5186 -23.9744 -23.9470 -23.9272
    14.0870  15.2707  16.0651  16.2264  16.3111  16.4761  19.2567  19.4186
    19.5219  20.2170

          k = 0.1875 0.3125 0.4375 (  2010 PWs)   bands (ev):

   -54.1621 -52.6567 -25.6391 -25.5989 -25.5076 -23.9855 -23.9618 -23.9212
    14.5474  14.9494  15.9299  16.0880  16.6188  17.0886  19.1495  19.3779
    19.4747  20.2908

          k = 0.1875 0.4375 0.4375 (  2027 PWs)   bands (ev):

   -54.1587 -52.6533 -25.6462 -25.6430 -25.4999 -23.9778 -23.9709 -23.9321
    14.4626  14.7571  15.8255  15.8609  17.5498  17.5845  19.1954  19.2310
    19.6986  20.3168

          k = 0.3125 0.3125 0.3125 (  2016 PWs)   bands (ev):

   -54.1610 -52.6550 -25.5902 -25.5756 -25.5756 -23.9716 -23.9716 -23.9563
    14.8691  15.6928  15.8414  15.8414  16.2446  16.2446  19.3667  19.3667
    19.8775  19.8775

          k = 0.3125 0.3125 0.4375 (  2019 PWs)   bands (ev):

   -54.1574 -52.6519 -25.6230 -25.5872 -25.5535 -23.9930 -23.9895 -23.9533
    15.0521  15.5246  15.6946  16.0744  16.1761  16.8386  19.2269  19.2571
    19.7919  20.2105

          k = 0.3125 0.4375 0.4375 (  2001 PWs)   bands (ev):

   -54.1541 -52.6485 -25.6141 -25.6110 -25.5505 -24.0044 -24.0005 -23.9786
    15.0720  15.5616  15.6810  15.7865  16.8353  16.9114  19.1301  19.1984
    20.0200  20.2966

          k = 0.4375 0.4375 0.4375 (  1977 PWs)   bands (ev):

   -54.1508 -52.6451 -25.5939 -25.5853 -25.5853 -24.0223 -24.0223 -24.0127
    15.4372  15.5995  15.5995  16.4513  16.5066  16.5066  19.1101  19.1101
    20.3052  20.3052

     the Fermi energy is    18.2005 ev

!    total energy              =    -349.98932510 Ry
     Harris-Foulkes estimate   =    -349.98932469 Ry
     estimated scf accuracy    <       0.00000038 Ry

     The total energy is the sum of the following terms:

     one-electron contribution =    -121.60549996 Ry
     hartree contribution      =      75.60635309 Ry
     xc contribution           =     -44.56962018 Ry
     ewald contribution        =    -259.42040003 Ry
     smearing contrib. (-TS)   =      -0.00015802 Ry

     total magnetization       =     0.00 Bohr mag/cell
     absolute magnetization    =     3.02 Bohr mag/cell

     convergence has been achieved in   8 iterations

     Writing output data file degauss-0.01.save/

     init_run     :      0.67s CPU      0.70s WALL (       1 calls)
     electrons    :      9.15s CPU      9.33s WALL (       1 calls)

     Called by init_run:
     wfcinit      :      0.23s CPU      0.24s WALL (       1 calls)
     potinit      :      0.06s CPU      0.06s WALL (       1 calls)
     hinit0       :      0.25s CPU      0.25s WALL (       1 calls)

     Called by electrons:
     c_bands      :      6.73s CPU      6.85s WALL (       9 calls)
     sum_band     :      1.65s CPU      1.68s WALL (       9 calls)
     v_of_rho     :      0.31s CPU      0.31s WALL (       9 calls)
     newd         :      0.52s CPU      0.54s WALL (       9 calls)
     mix_rho      :      0.02s CPU      0.02s WALL (       9 calls)

     Called by c_bands:
     init_us_2    :      0.10s CPU      0.10s WALL (     760 calls)
     cegterg      :      6.35s CPU      6.47s WALL (     360 calls)

     Called by sum_band:
     sum_band:bec :      0.01s CPU      0.01s WALL (     360 calls)
     addusdens    :      0.92s CPU      0.92s WALL (       9 calls)

     Called by *egterg:
     h_psi        :      3.38s CPU      3.44s WALL (    1658 calls)
     s_psi        :      0.37s CPU      0.38s WALL (    1658 calls)
     g_psi        :      0.03s CPU      0.03s WALL (    1258 calls)
     cdiaghg      :      0.97s CPU      0.98s WALL (    1578 calls)

     Called by h_psi:
     h_psi:pot    :      3.36s CPU      3.43s WALL (    1658 calls)
     h_psi:calbec :      0.51s CPU      0.53s WALL (    1658 calls)
     vloc_psi     :      2.48s CPU      2.52s WALL (    1658 calls)
     add_vuspsi   :      0.37s CPU      0.38s WALL (    1658 calls)

     General routines
     calbec       :      0.68s CPU      0.70s WALL (    2018 calls)
     fft          :      0.14s CPU      0.15s WALL (     221 calls)
     ffts         :      0.01s CPU      0.01s WALL (      36 calls)
     fftw         :      2.50s CPU      2.55s WALL (   44248 calls)
     interpolate  :      0.01s CPU      0.01s WALL (      18 calls)

     Parallel routines
     fft_scatt_xy :      0.34s CPU      0.35s WALL (   44505 calls)
     fft_scatt_yz :      1.32s CPU      1.35s WALL (   44505 calls)

     PWSCF        :     11.26s CPU     11.48s WALL


   This run was terminated on:  23:50:43   9Mar2022            

=------------------------------------------------------------------------------=
   JOB DONE.
=------------------------------------------------------------------------------=
