
     Program PWSCF v.6.4.1 starts on  9Mar2022 at 23:50:43 

     This program is part of the open-source Quantum ESPRESSO suite
     for quantum simulation of materials; please cite
         "P. Giannozzi et al., J. Phys.:Condens. Matter 21 395502 (2009);
         "P. Giannozzi et al., J. Phys.:Condens. Matter 29 465901 (2017);
          URL http://www.quantum-espresso.org", 
     in publications or presentations arising from this work. More details at
     http://www.quantum-espresso.org/quote

     Parallel version (MPI), running on     6 processors

     MPI processes distributed on     1 nodes
     R & G space division:  proc/nbgrp/npool/nimage =       6
     Reading input from degauss-0.03.in

     Current dimensions of program PWSCF are:
     Max number of different atomic species (ntypx) = 10
     Max number of k-points (npk) =  40000
     Max angular momentum in pseudopotentials (lmaxx) =  3
               file Cr.pbe-spn-rrkjus_psl.1.0.0.UPF: wavefunction(s)  3P renormalized
               file Cr.pbe-spn-rrkjus_psl.1.0.0.UPF: wavefunction(s)  3P renormalized

     Subspace diagonalization in iterative solution of the eigenvalue problem:
     a serial algorithm will be used

     Message from routine setup:
     DEPRECATED: symmetry with ibrav=0, use correct ibrav instead

     Parallelization info
     --------------------
     sticks:   dense  smooth     PW     G-vecs:    dense   smooth      PW
     Min         320     129     38                10576     2689     433
     Max         321     131     40                10577     2690     434
     Sum        1925     777    233                63461    16135    2601



     bravais-lattice index     =            0
     lattice parameter (alat)  =       5.4991  a.u.
     unit-cell volume          =     166.2936 (a.u.)^3
     number of atoms/cell      =            2
     number of atomic types    =            2
     number of electrons       =        28.00
     number of Kohn-Sham states=           18
     kinetic-energy cutoff     =      80.0000  Ry
     charge density cutoff     =     800.0000  Ry
     convergence threshold     =      1.0E-06
     mixing beta               =       0.7000
     number of iterations used =            8  plain     mixing
     Exchange-correlation      = PBE ( 1  4  3  4 0 0)

     celldm(1)=   5.499103  celldm(2)=   0.000000  celldm(3)=   0.000000
     celldm(4)=   0.000000  celldm(5)=   0.000000  celldm(6)=   0.000000

     crystal axes: (cart. coord. in units of alat)
               a(1) = (   1.000000   0.000000   0.000000 )  
               a(2) = (   0.000000   1.000000   0.000000 )  
               a(3) = (   0.000000   0.000000   1.000000 )  

     reciprocal axes: (cart. coord. in units 2 pi/alat)
               b(1) = (  1.000000  0.000000  0.000000 )  
               b(2) = (  0.000000  1.000000  0.000000 )  
               b(3) = (  0.000000  0.000000  1.000000 )  


     PseudoPot. # 1 for Cr read from file:
     /home/cristian/Escritorio/Proyecto_Grafeno/pseudopotenciales/Cr.pbe-spn-rrkjus_psl.1.0.0.UPF
     MD5 check sum: 793d051e4f89dd1e3290b85340a92c0a
     Pseudo is Ultrasoft + core correction, Zval = 14.0
     Generated using "atomic" code by A. Dal Corso v.6.2.2
     Using radial grid of 1183 points,  6 beta functions with: 
                l(1) =   0
                l(2) =   0
                l(3) =   1
                l(4) =   1
                l(5) =   2
                l(6) =   2
     Q(r) pseudized with 0 coefficients 


     PseudoPot. # 2 for Cr read from file:
     /home/cristian/Escritorio/Proyecto_Grafeno/pseudopotenciales/Cr.pbe-spn-rrkjus_psl.1.0.0.UPF
     MD5 check sum: 793d051e4f89dd1e3290b85340a92c0a
     Pseudo is Ultrasoft + core correction, Zval = 14.0
     Generated using "atomic" code by A. Dal Corso v.6.2.2
     Using radial grid of 1183 points,  6 beta functions with: 
                l(1) =   0
                l(2) =   0
                l(3) =   1
                l(4) =   1
                l(5) =   2
                l(6) =   2
     Q(r) pseudized with 0 coefficients 


     atomic species   valence    mass     pseudopotential
        Cr1           14.00    51.99610     Cr( 1.00)
        Cr2           14.00    51.99610     Cr( 1.00)

     Starting magnetic structure 
     atomic species   magnetization
        Cr1          0.100
        Cr2         -0.100

     48 Sym. Ops., with inversion, found



   Cartesian axes

     site n.     atom                  positions (alat units)
         1           Cr1 tau(   1) = (   0.0000000   0.0000000   0.0000000  )
         2           Cr2 tau(   2) = (   0.5000000   0.5000000   0.5000000  )

     number of k points=    20  gaussian smearing, width (Ry)=  0.0300
                       cart. coord. in units 2pi/alat
        k(    1) = (   0.0625000   0.0625000   0.0625000), wk =   0.0156250
        k(    2) = (   0.0625000   0.0625000   0.1875000), wk =   0.0468750
        k(    3) = (   0.0625000   0.0625000   0.3125000), wk =   0.0468750
        k(    4) = (   0.0625000   0.0625000   0.4375000), wk =   0.0468750
        k(    5) = (   0.0625000   0.1875000   0.1875000), wk =   0.0468750
        k(    6) = (   0.0625000   0.1875000   0.3125000), wk =   0.0937500
        k(    7) = (   0.0625000   0.1875000   0.4375000), wk =   0.0937500
        k(    8) = (   0.0625000   0.3125000   0.3125000), wk =   0.0468750
        k(    9) = (   0.0625000   0.3125000   0.4375000), wk =   0.0937500
        k(   10) = (   0.0625000   0.4375000   0.4375000), wk =   0.0468750
        k(   11) = (   0.1875000   0.1875000   0.1875000), wk =   0.0156250
        k(   12) = (   0.1875000   0.1875000   0.3125000), wk =   0.0468750
        k(   13) = (   0.1875000   0.1875000   0.4375000), wk =   0.0468750
        k(   14) = (   0.1875000   0.3125000   0.3125000), wk =   0.0468750
        k(   15) = (   0.1875000   0.3125000   0.4375000), wk =   0.0937500
        k(   16) = (   0.1875000   0.4375000   0.4375000), wk =   0.0468750
        k(   17) = (   0.3125000   0.3125000   0.3125000), wk =   0.0156250
        k(   18) = (   0.3125000   0.3125000   0.4375000), wk =   0.0468750
        k(   19) = (   0.3125000   0.4375000   0.4375000), wk =   0.0468750
        k(   20) = (   0.4375000   0.4375000   0.4375000), wk =   0.0156250

     Dense  grid:    63461 G-vectors     FFT dimensions: (  50,  50,  50)

     Smooth grid:    16135 G-vectors     FFT dimensions: (  32,  32,  32)

     Estimated max dynamical RAM per process >      48.55 MB

     Estimated total dynamical RAM >     291.30 MB
     Generating pointlists ...
     new r_m :   0.3572 (alat units)  1.9645 (a.u.) for type    1
     new r_m :   0.3572 (alat units)  1.9645 (a.u.) for type    2

     Check: negative core charge=   -0.000002

     Initial potential from superposition of free atoms

     starting charge   27.99845, renormalised to   28.00000
     Starting wfcs are   20 randomized atomic wfcs

     total cpu time spent up to now is        2.2 secs

     Self-consistent Calculation

     iteration #  1     ecut=    80.00 Ry     beta= 0.70
     Davidson diagonalization with overlap
     ethr =  1.00E-02,  avg # of iterations =  2.5

     Threshold (ethr) on eigenvalues was too large:
     Diagonalizing with lowered threshold

     Davidson diagonalization with overlap
     ethr =  6.27E-04,  avg # of iterations =  2.3

     total cpu time spent up to now is        3.8 secs

     total energy              =    -349.90587122 Ry
     Harris-Foulkes estimate   =    -350.02899268 Ry
     estimated scf accuracy    <       0.18829366 Ry

     total magnetization       =    -0.00 Bohr mag/cell
     absolute magnetization    =     2.14 Bohr mag/cell

     iteration #  2     ecut=    80.00 Ry     beta= 0.70
     Davidson diagonalization with overlap
     ethr =  6.72E-04,  avg # of iterations =  3.1

     total cpu time spent up to now is        5.0 secs

     total energy              =    -349.93504505 Ry
     Harris-Foulkes estimate   =    -350.05801640 Ry
     estimated scf accuracy    <       0.26825463 Ry

     total magnetization       =     0.00 Bohr mag/cell
     absolute magnetization    =     2.68 Bohr mag/cell

     iteration #  3     ecut=    80.00 Ry     beta= 0.70
     Davidson diagonalization with overlap
     ethr =  6.72E-04,  avg # of iterations =  3.0

     total cpu time spent up to now is        6.0 secs

     total energy              =    -349.98988728 Ry
     Harris-Foulkes estimate   =    -349.98987911 Ry
     estimated scf accuracy    <       0.00175086 Ry

     total magnetization       =     0.00 Bohr mag/cell
     absolute magnetization    =     2.41 Bohr mag/cell

     iteration #  4     ecut=    80.00 Ry     beta= 0.70
     Davidson diagonalization with overlap
     ethr =  6.25E-06,  avg # of iterations =  4.0

     total cpu time spent up to now is        7.3 secs

     total energy              =    -349.98805178 Ry
     Harris-Foulkes estimate   =    -349.99343034 Ry
     estimated scf accuracy    <       0.05913718 Ry

     total magnetization       =    -0.02 Bohr mag/cell
     absolute magnetization    =     2.47 Bohr mag/cell

     iteration #  5     ecut=    80.00 Ry     beta= 0.70
     Davidson diagonalization with overlap
     ethr =  6.25E-06,  avg # of iterations =  3.8

     total cpu time spent up to now is        8.3 secs

     total energy              =    -349.99076012 Ry
     Harris-Foulkes estimate   =    -349.99071755 Ry
     estimated scf accuracy    <       0.00005161 Ry

     total magnetization       =     0.00 Bohr mag/cell
     absolute magnetization    =     2.49 Bohr mag/cell

     iteration #  6     ecut=    80.00 Ry     beta= 0.70
     Davidson diagonalization with overlap
     ethr =  1.84E-07,  avg # of iterations =  3.8

     total cpu time spent up to now is        9.3 secs

     total energy              =    -349.99080547 Ry
     Harris-Foulkes estimate   =    -349.99077831 Ry
     estimated scf accuracy    <       0.00003772 Ry

     total magnetization       =     0.00 Bohr mag/cell
     absolute magnetization    =     2.53 Bohr mag/cell

     iteration #  7     ecut=    80.00 Ry     beta= 0.70
     Davidson diagonalization with overlap
     ethr =  1.35E-07,  avg # of iterations =  3.9

     total cpu time spent up to now is       10.3 secs

     total energy              =    -349.99051384 Ry
     Harris-Foulkes estimate   =    -349.99087328 Ry
     estimated scf accuracy    <       0.00002430 Ry

     total magnetization       =     0.00 Bohr mag/cell
     absolute magnetization    =     2.61 Bohr mag/cell

     iteration #  8     ecut=    80.00 Ry     beta= 0.70
     Davidson diagonalization with overlap
     ethr =  8.68E-08,  avg # of iterations =  4.7

     total cpu time spent up to now is       11.6 secs

     total energy              =    -349.99099948 Ry
     Harris-Foulkes estimate   =    -349.99099863 Ry
     estimated scf accuracy    <       0.00000247 Ry

     total magnetization       =     0.00 Bohr mag/cell
     absolute magnetization    =     2.82 Bohr mag/cell

     iteration #  9     ecut=    80.00 Ry     beta= 0.70
     Davidson diagonalization with overlap
     ethr =  8.81E-09,  avg # of iterations =  2.9

     Magnetic moment per site:
     atom:    1    charge:   12.2773    magn:    1.3197    constr:    0.0000
     atom:    2    charge:   12.2779    magn:   -1.3197    constr:    0.0000

     total cpu time spent up to now is       12.5 secs

     End of self-consistent calculation

 ------ SPIN UP ------------


          k = 0.0625 0.0625 0.0625 (  2013 PWs)   bands (ev):

   -54.1684 -52.7382 -25.4972 -25.4972 -25.4849 -23.9591 -23.9445 -23.9445
    10.7046  14.3297  14.3297  17.2198  17.2198  17.4432  19.3398  19.3398
    20.2311  20.6313

          k = 0.0625 0.0625 0.1875 (  2003 PWs)   bands (ev):

   -54.1620 -52.7384 -25.5237 -25.4825 -25.4738 -24.0038 -23.9548 -23.9537
    11.3269  14.6339  14.6366  17.0918  17.1495  17.6742  18.9731  19.5067
    19.5281  19.9718

          k = 0.0625 0.0625 0.3125 (  2003 PWs)   bands (ev):

   -54.1528 -52.7386 -25.5583 -25.4614 -25.4612 -24.0676 -23.9698 -23.9655
    12.4463  14.9603  15.2065  17.0438  17.0602  17.8313  18.3495  18.9993
    19.1887  19.7595

          k = 0.0625 0.0625 0.4375 (  2011 PWs)   bands (ev):

   -54.1464 -52.7388 -25.5822 -25.4527 -25.4462 -24.1122 -23.9806 -23.9740
    13.7545  14.7764  15.8988  16.8172  17.1636  17.7153  17.8019  18.6794
    19.0318  19.8707

          k = 0.0625 0.1875 0.1875 (  1999 PWs)   bands (ev):

   -54.1564 -52.7375 -25.5395 -25.4932 -25.4678 -24.0249 -23.9669 -23.9613
    11.8999  14.8273  15.0006  16.8103  16.9794  17.7697  19.0435  19.1095
    19.4174  19.5790

          k = 0.0625 0.1875 0.3125 (  2012 PWs)   bands (ev):

   -54.1485 -52.7363 -25.5738 -25.5014 -25.4551 -24.0596 -23.9820 -23.9683
    12.8939  15.0208  15.5458  16.6250  16.8423  17.3970  18.7574  19.0262
    19.3442  19.6508

          k = 0.0625 0.1875 0.4375 (  2008 PWs)   bands (ev):

   -54.1429 -52.7354 -25.5997 -25.5081 -25.4438 -24.0843 -23.9929 -23.9718
    13.9810  14.7808  16.0617  16.5198  16.8711  17.0528  18.4795  18.8413
    19.6405  20.1618

          k = 0.0625 0.3125 0.3125 (  2007 PWs)   bands (ev):

   -54.1423 -52.7330 -25.6007 -25.5537 -25.4452 -24.0519 -23.9966 -23.9711
    13.5426  14.8190  16.2509  16.3227  16.7937  16.9619  18.8397  19.1957
    19.5389  19.9666

          k = 0.0625 0.3125 0.4375 (  2016 PWs)   bands (ev):

   -54.1379 -52.7306 -25.6255 -25.5853 -25.4377 -24.0486 -24.0071 -23.9706
    14.0734  14.4811  16.1701  16.3616  16.9354  17.4271  18.9650  19.1790
    19.7881  20.6130

          k = 0.0625 0.4375 0.4375 (  2020 PWs)   bands (ev):

   -54.1344 -52.7272 -25.6448 -25.6373 -25.4334 -24.0258 -24.0163 -23.9696
    14.0304  14.2208  15.9404  16.0052  18.0521  18.4037  19.1912  19.4723
    19.4963  20.5031

          k = 0.1875 0.1875 0.1875 (  1992 PWs)   bands (ev):

   -54.1514 -52.7359 -25.5219 -25.5219 -25.4854 -24.0238 -23.9801 -23.9801
    12.4536  15.1889  15.1889  16.6492  16.6492  17.2299  19.2949  19.2949
    19.3053  20.0678

          k = 0.1875 0.1875 0.3125 (  2002 PWs)   bands (ev):

   -54.1444 -52.7336 -25.5697 -25.5032 -25.4965 -24.0460 -23.9995 -23.9826
    13.3849  15.4739  15.5093  16.4090  16.4980  16.7604  19.0755  19.3923
    19.5382  19.9511

          k = 0.1875 0.1875 0.4375 (  2014 PWs)   bands (ev):

   -54.1395 -52.7320 -25.6040 -25.5154 -25.4781 -24.0697 -24.0136 -23.9760
    14.3393  15.0687  15.8583  16.1527  16.6033  16.9509  18.8607  19.0222
    19.4971  20.2355

          k = 0.1875 0.3125 0.3125 (  2011 PWs)   bands (ev):

   -54.1387 -52.7299 -25.5788 -25.5556 -25.4892 -24.0434 -24.0145 -23.9970
    14.0852  15.2698  16.0693  16.2292  16.3069  16.4738  19.2381  19.3817
    19.5056  20.1803

          k = 0.1875 0.3125 0.4375 (  2010 PWs)   bands (ev):

   -54.1346 -52.7272 -25.6118 -25.5717 -25.4775 -24.0531 -24.0311 -23.9902
    14.5474  14.9452  15.9343  16.0874  16.6266  17.0689  19.1378  19.3487
    19.4702  20.2397

          k = 0.1875 0.4375 0.4375 (  2027 PWs)   bands (ev):

   -54.1312 -52.7238 -25.6196 -25.6163 -25.4696 -24.0454 -24.0378 -24.0024
    14.4651  14.7491  15.8270  15.8630  17.5412  17.5714  19.1942  19.2483
    19.6554  20.2564

          k = 0.3125 0.3125 0.3125 (  2016 PWs)   bands (ev):

   -54.1335 -52.7255 -25.5624 -25.5468 -25.5468 -24.0408 -24.0408 -24.0245
    14.8721  15.6814  15.8486  15.8486  16.2362  16.2362  19.3604  19.3604
    19.8319  19.8319

          k = 0.3125 0.3125 0.4375 (  2019 PWs)   bands (ev):

   -54.1299 -52.7224 -25.5950 -25.5594 -25.5233 -24.0612 -24.0600 -24.0217
    15.0602  15.5096  15.7039  16.0864  16.1642  16.8128  19.2242  19.2719
    19.7439  20.1543

          k = 0.3125 0.4375 0.4375 (  2001 PWs)   bands (ev):

   -54.1266 -52.7190 -25.5859 -25.5825 -25.5203 -24.0741 -24.0694 -24.0481
    15.0814  15.5514  15.6884  15.7882  16.8116  16.8906  19.1536  19.2082
    19.9666  20.2339

          k = 0.4375 0.4375 0.4375 (  1977 PWs)   bands (ev):

   -54.1233 -52.7156 -25.5644 -25.5552 -25.5552 -24.0927 -24.0927 -24.0824
    15.4492  15.6142  15.6142  16.4225  16.4767  16.4767  19.1354  19.1354
    20.2418  20.2418

 ------ SPIN DOWN ----------


          k = 0.0625 0.0625 0.0625 (  2013 PWs)   bands (ev):

   -54.1687 -52.7378 -25.4977 -25.4977 -25.4853 -23.9587 -23.9442 -23.9442
    10.7046  14.3296  14.3296  17.2196  17.2196  17.4430  19.3398  19.3398
    20.2312  20.6314

          k = 0.0625 0.0625 0.1875 (  2003 PWs)   bands (ev):

   -54.1623 -52.7380 -25.5242 -25.4830 -25.4743 -24.0034 -23.9544 -23.9533
    11.3268  14.6338  14.6365  17.0916  17.1493  17.6739  18.9732  19.5068
    19.5284  19.9719

          k = 0.0625 0.0625 0.3125 (  2003 PWs)   bands (ev):

   -54.1532 -52.7382 -25.5587 -25.4618 -25.4616 -24.0672 -23.9694 -23.9650
    12.4463  14.9602  15.2064  17.0436  17.0600  17.8310  18.3496  18.9996
    19.1890  19.7595

          k = 0.0625 0.0625 0.4375 (  2011 PWs)   bands (ev):

   -54.1467 -52.7384 -25.5826 -25.4532 -25.4466 -24.1118 -23.9802 -23.9736
    13.7545  14.7764  15.8986  16.8171  17.1634  17.7151  17.8019  18.6796
    19.0319  19.8709

          k = 0.0625 0.1875 0.1875 (  1999 PWs)   bands (ev):

   -54.1568 -52.7371 -25.5399 -25.4936 -25.4683 -24.0245 -23.9665 -23.9609
    11.8999  14.8272  15.0005  16.8101  16.9792  17.7694  19.0437  19.1097
    19.4175  19.5792

          k = 0.0625 0.1875 0.3125 (  2012 PWs)   bands (ev):

   -54.1489 -52.7359 -25.5742 -25.5018 -25.4555 -24.0591 -23.9816 -23.9679
    12.8939  15.0207  15.5457  16.6249  16.8422  17.3968  18.7574  19.0263
    19.3444  19.6509

          k = 0.0625 0.1875 0.4375 (  2008 PWs)   bands (ev):

   -54.1433 -52.7350 -25.6001 -25.5085 -25.4443 -24.0839 -23.9925 -23.9714
    13.9810  14.7807  16.0615  16.5197  16.8710  17.0526  18.4795  18.8414
    19.6405  20.1618

          k = 0.0625 0.3125 0.3125 (  2007 PWs)   bands (ev):

   -54.1427 -52.7326 -25.6011 -25.5541 -25.4456 -24.0515 -23.9962 -23.9707
    13.5426  14.8189  16.2507  16.3226  16.7935  16.9618  18.8398  19.1958
    19.5390  19.9668

          k = 0.0625 0.3125 0.4375 (  2016 PWs)   bands (ev):

   -54.1383 -52.7302 -25.6259 -25.5857 -25.4382 -24.0482 -24.0068 -23.9702
    14.0733  14.4810  16.1699  16.3615  16.9352  17.4271  18.9650  19.1791
    19.7880  20.6132

          k = 0.0625 0.4375 0.4375 (  2020 PWs)   bands (ev):

   -54.1348 -52.7268 -25.6452 -25.6377 -25.4338 -24.0254 -24.0159 -23.9692
    14.0303  14.2208  15.9403  16.0051  18.0519  18.4036  19.1912  19.4725
    19.4962  20.5033

          k = 0.1875 0.1875 0.1875 (  1992 PWs)   bands (ev):

   -54.1518 -52.7355 -25.5224 -25.5224 -25.4858 -24.0233 -23.9797 -23.9797
    12.4536  15.1888  15.1888  16.6491  16.6491  17.2297  19.2949  19.2949
    19.3055  20.0679

          k = 0.1875 0.1875 0.3125 (  2002 PWs)   bands (ev):

   -54.1448 -52.7332 -25.5701 -25.5036 -25.4970 -24.0456 -23.9991 -23.9822
    13.3849  15.4738  15.5092  16.4088  16.4979  16.7602  19.0756  19.3924
    19.5382  19.9512

          k = 0.1875 0.1875 0.4375 (  2014 PWs)   bands (ev):

   -54.1398 -52.7316 -25.6044 -25.5158 -25.4786 -24.0693 -24.0132 -23.9756
    14.3393  15.0686  15.8582  16.1526  16.6032  16.9509  18.8608  19.0223
    19.4969  20.2357

          k = 0.1875 0.3125 0.3125 (  2011 PWs)   bands (ev):

   -54.1391 -52.7295 -25.5792 -25.5561 -25.4896 -24.0430 -24.0141 -23.9966
    14.0851  15.2697  16.0691  16.2290  16.3068  16.4737  19.2381  19.3818
    19.5056  20.1804

          k = 0.1875 0.3125 0.4375 (  2010 PWs)   bands (ev):

   -54.1350 -52.7268 -25.6122 -25.5721 -25.4780 -24.0527 -24.0307 -23.9898
    14.5473  14.9451  15.9341  16.0872  16.6265  17.0689  19.1378  19.3488
    19.4701  20.2400

          k = 0.1875 0.4375 0.4375 (  2027 PWs)   bands (ev):

   -54.1316 -52.7234 -25.6200 -25.6167 -25.4700 -24.0451 -24.0374 -24.0019
    14.4650  14.7491  15.8268  15.8629  17.5412  17.5714  19.1940  19.2480
    19.6556  20.2568

          k = 0.3125 0.3125 0.3125 (  2016 PWs)   bands (ev):

   -54.1339 -52.7251 -25.5628 -25.5472 -25.5472 -24.0404 -24.0404 -24.0242
    14.8720  15.6814  15.8484  15.8484  16.2361  16.2361  19.3603  19.3603
    19.8322  19.8322

          k = 0.3125 0.3125 0.4375 (  2019 PWs)   bands (ev):

   -54.1303 -52.7220 -25.5954 -25.5598 -25.5238 -24.0608 -24.0596 -24.0213
    15.0600  15.5096  15.7037  16.0862  16.1642  16.8130  19.2241  19.2716
    19.7442  20.1546

          k = 0.3125 0.4375 0.4375 (  2001 PWs)   bands (ev):

   -54.1269 -52.7186 -25.5863 -25.5829 -25.5207 -24.0737 -24.0690 -24.0477
    15.0812  15.5514  15.6883  15.7880  16.8117  16.8907  19.1533  19.2080
    19.9669  20.2343

          k = 0.4375 0.4375 0.4375 (  1977 PWs)   bands (ev):

   -54.1237 -52.7152 -25.5649 -25.5557 -25.5557 -24.0923 -24.0923 -24.0820
    15.4490  15.6140  15.6140  16.4227  16.4768  16.4768  19.1350  19.1350
    20.2422  20.2422

     the Fermi energy is    18.1591 ev

!    total energy              =    -349.99100068 Ry
     Harris-Foulkes estimate   =    -349.99100048 Ry
     estimated scf accuracy    <       0.00000030 Ry

     The total energy is the sum of the following terms:

     one-electron contribution =    -121.58963154 Ry
     hartree contribution      =      75.57935643 Ry
     xc contribution           =     -44.55501757 Ry
     ewald contribution        =    -259.42040003 Ry
     smearing contrib. (-TS)   =      -0.00530796 Ry

     total magnetization       =    -0.00 Bohr mag/cell
     absolute magnetization    =     2.83 Bohr mag/cell

     convergence has been achieved in   9 iterations

     Writing output data file degauss-0.03.save/

     init_run     :      0.66s CPU      0.71s WALL (       1 calls)
     electrons    :     10.21s CPU     10.39s WALL (       1 calls)

     Called by init_run:
     wfcinit      :      0.22s CPU      0.23s WALL (       1 calls)
     potinit      :      0.07s CPU      0.07s WALL (       1 calls)
     hinit0       :      0.25s CPU      0.26s WALL (       1 calls)

     Called by electrons:
     c_bands      :      7.47s CPU      7.60s WALL (      10 calls)
     sum_band     :      1.84s CPU      1.87s WALL (      10 calls)
     v_of_rho     :      0.35s CPU      0.36s WALL (      10 calls)
     newd         :      0.57s CPU      0.59s WALL (      10 calls)
     mix_rho      :      0.02s CPU      0.03s WALL (      10 calls)

     Called by c_bands:
     init_us_2    :      0.11s CPU      0.12s WALL (     840 calls)
     cegterg      :      7.06s CPU      7.18s WALL (     400 calls)

     Called by sum_band:
     sum_band:bec :      0.01s CPU      0.01s WALL (     400 calls)
     addusdens    :      1.00s CPU      1.00s WALL (      10 calls)

     Called by *egterg:
     h_psi        :      3.73s CPU      3.81s WALL (    1797 calls)
     s_psi        :      0.43s CPU      0.44s WALL (    1797 calls)
     g_psi        :      0.04s CPU      0.04s WALL (    1357 calls)
     cdiaghg      :      1.07s CPU      1.07s WALL (    1717 calls)

     Called by h_psi:
     h_psi:pot    :      3.72s CPU      3.80s WALL (    1797 calls)
     h_psi:calbec :      0.56s CPU      0.57s WALL (    1797 calls)
     vloc_psi     :      2.73s CPU      2.79s WALL (    1797 calls)
     add_vuspsi   :      0.42s CPU      0.43s WALL (    1797 calls)

     General routines
     calbec       :      0.75s CPU      0.77s WALL (    2197 calls)
     fft          :      0.15s CPU      0.16s WALL (     246 calls)
     ffts         :      0.01s CPU      0.01s WALL (      40 calls)
     fftw         :      2.77s CPU      2.83s WALL (   48046 calls)
     interpolate  :      0.01s CPU      0.02s WALL (      20 calls)

     Parallel routines
     fft_scatt_xy :      0.38s CPU      0.39s WALL (   48332 calls)
     fft_scatt_yz :      1.44s CPU      1.47s WALL (   48332 calls)

     PWSCF        :     12.33s CPU     12.62s WALL


   This run was terminated on:  23:50:56   9Mar2022            

=------------------------------------------------------------------------------=
   JOB DONE.
=------------------------------------------------------------------------------=
