
     Program PWSCF v.6.4.1 starts on  7Sep2022 at 19:48:22 

     This program is part of the open-source Quantum ESPRESSO suite
     for quantum simulation of materials; please cite
         "P. Giannozzi et al., J. Phys.:Condens. Matter 21 395502 (2009);
         "P. Giannozzi et al., J. Phys.:Condens. Matter 29 465901 (2017);
          URL http://www.quantum-espresso.org", 
     in publications or presentations arising from this work. More details at
     http://www.quantum-espresso.org/quote

     Parallel version (MPI), running on     6 processors

     MPI processes distributed on     1 nodes
     R & G space division:  proc/nbgrp/npool/nimage =       6
     Reading input from distance-2.4.in

     Current dimensions of program PWSCF are:
     Max number of different atomic species (ntypx) = 10
     Max number of k-points (npk) =  40000
     Max angular momentum in pseudopotentials (lmaxx) =  3

     IMPORTANT: XC functional enforced from input :
     Exchange-correlation      = RVV10 ( 1  4 13  4 3 0)
     Any further DFT definition will be discarded
     Please, verify this is what you really want

               file H.pbe-rrkjus.UPF: wavefunction(s)  1S renormalized
               file Cu.pbe-dn-rrkjus_psl.1.0.0.UPF: wavefunction(s)  3D renormalized

     Subspace diagonalization in iterative solution of the eigenvalue problem:
     a serial algorithm will be used


     Parallelization info
     --------------------
     sticks:   dense  smooth     PW     G-vecs:    dense   smooth      PW
     Min        3051    1746    432               270999   117096   14629
     Max        3053    1747    437               271001   117099   14630
     Sum       18313   10477   2611              1626001   702581   87777



     bravais-lattice index     =            4
     lattice parameter (alat)  =      23.2937  a.u.
     unit-cell volume          =    8879.8548 (a.u.)^3
     number of atoms/cell      =           52
     number of atomic types    =            3
     number of electrons       =       209.00
     number of Kohn-Sham states=          126
     kinetic-energy cutoff     =      70.0000  Ry
     charge density cutoff     =     490.0000  Ry
     convergence threshold     =      1.0E-06
     mixing beta               =       0.7000
     number of iterations used =            8  plain     mixing
     Exchange-correlation      = RVV10 ( 1  4 13  4 3 0)

     celldm(1)=  23.293684  celldm(2)=   0.000000  celldm(3)=   0.811261
     celldm(4)=   0.000000  celldm(5)=   0.000000  celldm(6)=   0.000000

     crystal axes: (cart. coord. in units of alat)
               a(1) = (   1.000000   0.000000   0.000000 )  
               a(2) = (  -0.500000   0.866025   0.000000 )  
               a(3) = (   0.000000   0.000000   0.811261 )  

     reciprocal axes: (cart. coord. in units 2 pi/alat)
               b(1) = (  1.000000  0.577350 -0.000000 )  
               b(2) = (  0.000000  1.154701  0.000000 )  
               b(3) = (  0.000000 -0.000000  1.232649 )  


     PseudoPot. # 1 for H  read from file:
     /home/cristian/Escritorio/Proyecto_Grafeno/pseudopotenciales/H.pbe-rrkjus.UPF
     MD5 check sum: 7cc9d459525c9a0585f487a71c3c9563
     Pseudo is Ultrasoft, Zval =  1.0
     Generated by new atomic code, or converted to UPF format
     Using radial grid of 1061 points,  2 beta functions with: 
                l(1) =   0
                l(2) =   0
     Q(r) pseudized with 0 coefficients 


     PseudoPot. # 2 for C  read from file:
     /home/cristian/Escritorio/Proyecto_Grafeno/pseudopotenciales/C.pbe-n-rrkjus_psl.1.0.0.UPF
     MD5 check sum: 1fdd950c42eb37d8afe3dd2f8d12311e
     Pseudo is Ultrasoft + core correction, Zval =  4.0
     Generated using "atomic" code by A. Dal Corso v.6.3MaX
     Using radial grid of 1073 points,  4 beta functions with: 
                l(1) =   0
                l(2) =   0
                l(3) =   1
                l(4) =   1
     Q(r) pseudized with 0 coefficients 


     PseudoPot. # 3 for Cu read from file:
     /home/cristian/Escritorio/Proyecto_Grafeno/pseudopotenciales/Cu.pbe-dn-rrkjus_psl.1.0.0.UPF
     MD5 check sum: ba3d6c84e19846e79d48cdc68ff7152b
     Pseudo is Ultrasoft + core correction, Zval = 11.0
     Generated using "atomic" code by A. Dal Corso v.6.3
     Using radial grid of 1199 points,  6 beta functions with: 
                l(1) =   0
                l(2) =   0
                l(3) =   1
                l(4) =   1
                l(5) =   2
                l(6) =   2
     Q(r) pseudized with 0 coefficients 


     vdW kernel table read from file rVV10_kernel_table
     MD5 check sum: b8e2538accc0c0b3206b45ba4daaba6c

     atomic species   valence    mass     pseudopotential
        H              1.00     1.00794     H ( 1.00)
        C              4.00    12.01070     C ( 1.00)
        Cu            11.00    63.54600     Cu( 1.00)

     Starting magnetic structure 
     atomic species   magnetization
        H            0.500
        C            0.300
        Cu           0.800

     No symmetry found


                                    s                        frac. trans.

      isym =  1     identity                                     

 cryst.   s( 1) = (     1          0          0      )
                  (     0          1          0      )
                  (     0          0          1      )

 cart.    s( 1) = (  1.0000000  0.0000000  0.0000000 )
                  (  0.0000000  1.0000000  0.0000000 )
                  (  0.0000000  0.0000000  1.0000000 )


     point group C_1 (1)    
     there are  1 classes
     the character table:

       E    
A      1.00

     the symmetry operations in each class and the name of the first element:

     E        1
          identity                                               

   Cartesian axes

     site n.     atom                  positions (alat units)
         1           H   tau(   1) = (   0.2694937   0.4041452   0.1947027  )
         2           H   tau(   2) = (   0.3305063   0.4041452   0.1947027  )
         3           C   tau(   3) = (   0.0000000   0.0000000   0.0000000  )
         4           C   tau(   4) = (   0.0000000   0.1154701   0.0000000  )
         5           C   tau(   5) = (  -0.1000000   0.1732051   0.0000000  )
         6           C   tau(   6) = (  -0.1000000   0.2886751   0.0000000  )
         7           C   tau(   7) = (  -0.2000000   0.3464102   0.0000000  )
         8           C   tau(   8) = (  -0.2000000   0.4618802   0.0000000  )
         9           C   tau(   9) = (  -0.3000000   0.5196152   0.0000000  )
        10           C   tau(  10) = (  -0.3000000   0.6350853   0.0000000  )
        11           C   tau(  11) = (  -0.4000000   0.6928203   0.0000000  )
        12           C   tau(  12) = (  -0.4000000   0.8082904   0.0000000  )
        13           C   tau(  13) = (   0.2000000   0.0000000   0.0000000  )
        14           C   tau(  14) = (   0.2000000   0.1154701   0.0000000  )
        15           C   tau(  15) = (   0.1000000   0.1732051   0.0000000  )
        16           C   tau(  16) = (   0.1000000   0.2886751   0.0000000  )
        17           C   tau(  17) = (   0.0000000   0.3464102   0.0000000  )
        18           C   tau(  18) = (   0.0000000   0.4618802   0.0000000  )
        19           C   tau(  19) = (  -0.1000000   0.5196152   0.0000000  )
        20           C   tau(  20) = (  -0.1000000   0.6350853   0.0000000  )
        21           C   tau(  21) = (  -0.2000000   0.6928203   0.0000000  )
        22           C   tau(  22) = (  -0.2000000   0.8082904   0.0000000  )
        23           C   tau(  23) = (   0.4000000   0.0000000   0.0000000  )
        24           C   tau(  24) = (   0.4000000   0.1154701   0.0000000  )
        25           C   tau(  25) = (   0.3000000   0.1732051   0.0000000  )
        26           C   tau(  26) = (   0.3000000   0.2886751   0.0000000  )
        27           C   tau(  27) = (   0.2000000   0.3464102   0.0000000  )
        28           Cu  tau(  28) = (   0.2000000   0.4618802   0.0000000  )
        29           C   tau(  29) = (   0.1000000   0.5196152   0.0000000  )
        30           C   tau(  30) = (   0.1000000   0.6350853   0.0000000  )
        31           C   tau(  31) = (   0.0000000   0.6928203   0.0000000  )
        32           C   tau(  32) = (   0.0000000   0.8082904   0.0000000  )
        33           C   tau(  33) = (   0.6000000   0.0000000   0.0000000  )
        34           C   tau(  34) = (   0.6000000   0.1154701   0.0000000  )
        35           C   tau(  35) = (   0.5000000   0.1732051   0.0000000  )
        36           C   tau(  36) = (   0.5000000   0.2886751   0.0000000  )
        37           C   tau(  37) = (   0.4000000   0.3464102   0.0000000  )
        38           C   tau(  38) = (   0.4000000   0.4618802   0.0000000  )
        39           C   tau(  39) = (   0.3000000   0.5196152   0.0000000  )
        40           C   tau(  40) = (   0.3000000   0.6350853   0.0000000  )
        41           C   tau(  41) = (   0.2000000   0.6928203   0.0000000  )
        42           C   tau(  42) = (   0.2000000   0.8082904   0.0000000  )
        43           C   tau(  43) = (   0.8000000   0.0000000   0.0000000  )
        44           C   tau(  44) = (   0.8000000   0.1154701   0.0000000  )
        45           C   tau(  45) = (   0.7000000   0.1732051   0.0000000  )
        46           C   tau(  46) = (   0.7000000   0.2886751   0.0000000  )
        47           C   tau(  47) = (   0.6000000   0.3464102   0.0000000  )
        48           C   tau(  48) = (   0.6000000   0.4618802   0.0000000  )
        49           C   tau(  49) = (   0.5000000   0.5196152   0.0000000  )
        50           C   tau(  50) = (   0.5000000   0.6350853   0.0000000  )
        51           C   tau(  51) = (   0.4000000   0.6928203   0.0000000  )
        52           C   tau(  52) = (   0.4000000   0.8082904   0.0000000  )

   Crystallographic axes

     site n.     atom                  positions (cryst. coord.)
         1           H   tau(   1) = (  0.5028270  0.4666667  0.2400000  )
         2           H   tau(   2) = (  0.5638397  0.4666667  0.2400000  )
         3           C   tau(   3) = (  0.0000000  0.0000000  0.0000000  )
         4           C   tau(   4) = (  0.0666667  0.1333333  0.0000000  )
         5           C   tau(   5) = (  0.0000000  0.2000000  0.0000000  )
         6           C   tau(   6) = (  0.0666667  0.3333333  0.0000000  )
         7           C   tau(   7) = (  0.0000000  0.4000000  0.0000000  )
         8           C   tau(   8) = (  0.0666667  0.5333333  0.0000000  )
         9           C   tau(   9) = (  0.0000000  0.6000000  0.0000000  )
        10           C   tau(  10) = (  0.0666667  0.7333333  0.0000000  )
        11           C   tau(  11) = (  0.0000000  0.8000000  0.0000000  )
        12           C   tau(  12) = (  0.0666667  0.9333333  0.0000000  )
        13           C   tau(  13) = (  0.2000000  0.0000000  0.0000000  )
        14           C   tau(  14) = (  0.2666667  0.1333333  0.0000000  )
        15           C   tau(  15) = (  0.2000000  0.2000000  0.0000000  )
        16           C   tau(  16) = (  0.2666667  0.3333333  0.0000000  )
        17           C   tau(  17) = (  0.2000000  0.4000000  0.0000000  )
        18           C   tau(  18) = (  0.2666667  0.5333333  0.0000000  )
        19           C   tau(  19) = (  0.2000000  0.6000000  0.0000000  )
        20           C   tau(  20) = (  0.2666667  0.7333333  0.0000000  )
        21           C   tau(  21) = (  0.2000000  0.8000000  0.0000000  )
        22           C   tau(  22) = (  0.2666667  0.9333333  0.0000000  )
        23           C   tau(  23) = (  0.4000000  0.0000000  0.0000000  )
        24           C   tau(  24) = (  0.4666667  0.1333333  0.0000000  )
        25           C   tau(  25) = (  0.4000000  0.2000000  0.0000000  )
        26           C   tau(  26) = (  0.4666667  0.3333333  0.0000000  )
        27           C   tau(  27) = (  0.4000000  0.4000000  0.0000000  )
        28           Cu  tau(  28) = (  0.4666667  0.5333333  0.0000000  )
        29           C   tau(  29) = (  0.4000000  0.6000000  0.0000000  )
        30           C   tau(  30) = (  0.4666667  0.7333333  0.0000000  )
        31           C   tau(  31) = (  0.4000000  0.8000000  0.0000000  )
        32           C   tau(  32) = (  0.4666667  0.9333333  0.0000000  )
        33           C   tau(  33) = (  0.6000000  0.0000000  0.0000000  )
        34           C   tau(  34) = (  0.6666667  0.1333333  0.0000000  )
        35           C   tau(  35) = (  0.6000000  0.2000000  0.0000000  )
        36           C   tau(  36) = (  0.6666667  0.3333333  0.0000000  )
        37           C   tau(  37) = (  0.6000000  0.4000000  0.0000000  )
        38           C   tau(  38) = (  0.6666667  0.5333333  0.0000000  )
        39           C   tau(  39) = (  0.6000000  0.6000000  0.0000000  )
        40           C   tau(  40) = (  0.6666667  0.7333333  0.0000000  )
        41           C   tau(  41) = (  0.6000000  0.8000000  0.0000000  )
        42           C   tau(  42) = (  0.6666667  0.9333333  0.0000000  )
        43           C   tau(  43) = (  0.8000000  0.0000000  0.0000000  )
        44           C   tau(  44) = (  0.8666667  0.1333333  0.0000000  )
        45           C   tau(  45) = (  0.8000000  0.2000000  0.0000000  )
        46           C   tau(  46) = (  0.8666667  0.3333333  0.0000000  )
        47           C   tau(  47) = (  0.8000000  0.4000000  0.0000000  )
        48           C   tau(  48) = (  0.8666667  0.5333333  0.0000000  )
        49           C   tau(  49) = (  0.8000000  0.6000000  0.0000000  )
        50           C   tau(  50) = (  0.8666667  0.7333333  0.0000000  )
        51           C   tau(  51) = (  0.8000000  0.8000000  0.0000000  )
        52           C   tau(  52) = (  0.8666667  0.9333333  0.0000000  )

     number of k points=     1  Marzari-Vanderbilt smearing, width (Ry)=  0.0010
                       cart. coord. in units 2pi/alat
        k(    1) = (   0.0000000   0.0000000   0.0000000), wk =   1.0000000

                       cryst. coord.
        k(    1) = (   0.0000000   0.0000000   0.0000000), wk =   1.0000000

     Dense  grid:  1626001 G-vectors     FFT dimensions: ( 180, 180, 135)

     Smooth grid:   702581 G-vectors     FFT dimensions: ( 125, 125, 108)

     Dynamical RAM for                 wfc:      28.14 MB

     Dynamical RAM for     wfc (w. buffer):      84.42 MB

     Dynamical RAM for           str. fact:      12.41 MB

     Dynamical RAM for           local pot:       0.00 MB

     Dynamical RAM for          nlocal pot:      92.46 MB

     Dynamical RAM for                qrad:      19.73 MB

     Dynamical RAM for          rho,v,vnew:      58.92 MB

     Dynamical RAM for               rhoin:      19.64 MB

     Dynamical RAM for            rho*nmix:     132.32 MB

     Dynamical RAM for           G-vectors:      16.40 MB

     Dynamical RAM for          h,s,v(r/c):      11.63 MB

     Dynamical RAM for          <psi|beta>:       0.80 MB

     Dynamical RAM for                 psi:     112.56 MB

     Dynamical RAM for                hpsi:     112.56 MB

     Dynamical RAM for                spsi:     112.56 MB

     Dynamical RAM for      wfcinit/wfcrot:      93.45 MB

     Dynamical RAM for           addusdens:     975.89 MB

     Estimated static dynamical RAM per process >     486.96 MB

     Estimated max dynamical RAM per process >       1.43 GB

     Estimated total dynamical RAM >       8.57 GB
     Generating pointlists ...
     new r_m :   0.0252 (alat units)  0.5862 (a.u.) for type    1
     new r_m :   0.0476 (alat units)  1.1095 (a.u.) for type    2
     new r_m :   0.0476 (alat units)  1.1095 (a.u.) for type    3

     Check: negative core charge=   -0.000002

     Initial potential from superposition of free atoms

     starting charge  208.80532, renormalised to  209.00000

     negative rho (up, down):  6.787E-05 1.202E-02


---------------------------------------------------------------------------------
Carrying out rVV10 run using the following parameters:
Nqs =      20    Nr_points =    1024   r_max =   100.000
b_value =  6.30000    beta =  0.00901
     q_mesh =  0.00010000  0.00030000  0.00058939  0.00100810
               0.00161396  0.00249058  0.00375900  0.00559430
               0.00824984  0.01209221  0.01765183  0.02569619
               0.03733578  0.05417739  0.07854596  0.11380545
               0.16482331  0.23864234  0.34545298  0.50000000

Gradients computed in Reciprocal space

---------------------------------------------------------------------------------


     Starting wfcs are  207 randomized atomic wfcs

     total cpu time spent up to now is       72.9 secs

     Self-consistent Calculation

     iteration #  1     ecut=    70.00 Ry     beta= 0.70
     Davidson diagonalization with overlap
     ethr =  1.00E-02,  avg # of iterations =  2.0

     negative rho (up, down):  1.678E-04 1.230E-02

     total cpu time spent up to now is      198.9 secs

     total energy              =    -729.12611761 Ry
     Harris-Foulkes estimate   =    -734.87484188 Ry
     estimated scf accuracy    <      12.60853885 Ry

     total magnetization       =     5.00 Bohr mag/cell
     absolute magnetization    =     5.76 Bohr mag/cell

     iteration #  2     ecut=    70.00 Ry     beta= 0.70
     Davidson diagonalization with overlap
     ethr =  6.03E-03,  avg # of iterations =  3.5

     negative rho (up, down):  1.958E-04 1.103E-02

     total cpu time spent up to now is      320.8 secs

     total energy              =    -730.26513030 Ry
     Harris-Foulkes estimate   =    -741.44816790 Ry
     estimated scf accuracy    <      26.60812457 Ry

     total magnetization       =     3.00 Bohr mag/cell
     absolute magnetization    =     3.21 Bohr mag/cell

     iteration #  3     ecut=    70.00 Ry     beta= 0.70
     Davidson diagonalization with overlap
     ethr =  6.03E-03,  avg # of iterations =  4.5

     negative rho (up, down):  2.389E-04 8.725E-03

     total cpu time spent up to now is      427.5 secs

     total energy              =    -732.71113103 Ry
     Harris-Foulkes estimate   =    -735.61352567 Ry
     estimated scf accuracy    <       7.57662218 Ry

     total magnetization       =     1.00 Bohr mag/cell
     absolute magnetization    =     1.61 Bohr mag/cell

     iteration #  4     ecut=    70.00 Ry     beta= 0.70
     Davidson diagonalization with overlap
     ethr =  3.63E-03,  avg # of iterations =  3.0

     negative rho (up, down):  2.861E-04 8.095E-03

     total cpu time spent up to now is      531.8 secs

     total energy              =    -733.69937040 Ry
     Harris-Foulkes estimate   =    -735.28304186 Ry
     estimated scf accuracy    <       6.70142973 Ry

     total magnetization       =     3.00 Bohr mag/cell
     absolute magnetization    =     3.12 Bohr mag/cell

     iteration #  5     ecut=    70.00 Ry     beta= 0.70
     Davidson diagonalization with overlap
     ethr =  3.21E-03,  avg # of iterations =  3.0

     negative rho (up, down):  3.250E-04 1.068E-02

     total cpu time spent up to now is      625.3 secs

     total energy              =    -734.36544565 Ry
     Harris-Foulkes estimate   =    -734.99925100 Ry
     estimated scf accuracy    <       2.73002828 Ry

     total magnetization       =     1.00 Bohr mag/cell
     absolute magnetization    =     1.35 Bohr mag/cell

     iteration #  6     ecut=    70.00 Ry     beta= 0.70
     Davidson diagonalization with overlap
     ethr =  1.31E-03,  avg # of iterations =  2.5

     negative rho (up, down):  4.029E-04 1.478E-02

     total cpu time spent up to now is      718.8 secs

     total energy              =    -734.66954507 Ry
     Harris-Foulkes estimate   =    -734.79071541 Ry
     estimated scf accuracy    <       0.35192439 Ry

     total magnetization       =     1.00 Bohr mag/cell
     absolute magnetization    =     1.33 Bohr mag/cell

     iteration #  7     ecut=    70.00 Ry     beta= 0.70
     Davidson diagonalization with overlap
     ethr =  1.68E-04,  avg # of iterations =  7.5

     negative rho (up, down):  5.313E-04 1.001E-02

     total cpu time spent up to now is      831.7 secs

     total energy              =    -734.72768921 Ry
     Harris-Foulkes estimate   =    -734.78118609 Ry
     estimated scf accuracy    <       0.19222449 Ry

     total magnetization       =     1.00 Bohr mag/cell
     absolute magnetization    =     1.24 Bohr mag/cell

     iteration #  8     ecut=    70.00 Ry     beta= 0.70
     Davidson diagonalization with overlap
     ethr =  9.20E-05,  avg # of iterations =  3.0

     negative rho (up, down):  6.169E-04 3.900E-03

     total cpu time spent up to now is      926.9 secs

     total energy              =    -734.74513047 Ry
     Harris-Foulkes estimate   =    -734.76134767 Ry
     estimated scf accuracy    <       0.06351082 Ry

     total magnetization       =     1.00 Bohr mag/cell
     absolute magnetization    =     1.19 Bohr mag/cell

     iteration #  9     ecut=    70.00 Ry     beta= 0.70
     Davidson diagonalization with overlap
     ethr =  3.04E-05,  avg # of iterations =  2.5

     negative rho (up, down):  6.566E-04 2.531E-03

     total cpu time spent up to now is     1021.2 secs

     total energy              =    -734.75222529 Ry
     Harris-Foulkes estimate   =    -734.75327821 Ry
     estimated scf accuracy    <       0.02242062 Ry

     total magnetization       =     1.00 Bohr mag/cell
     absolute magnetization    =     1.16 Bohr mag/cell

     iteration # 10     ecut=    70.00 Ry     beta= 0.70
     Davidson diagonalization with overlap
     ethr =  1.07E-05,  avg # of iterations =  2.0

     negative rho (up, down):  6.623E-04 2.522E-03

     total cpu time spent up to now is     1113.0 secs

     total energy              =    -734.75221499 Ry
     Harris-Foulkes estimate   =    -734.75360798 Ry
     estimated scf accuracy    <       0.01215333 Ry

     total magnetization       =     1.00 Bohr mag/cell
     absolute magnetization    =     1.13 Bohr mag/cell

     iteration # 11     ecut=    70.00 Ry     beta= 0.70
     Davidson diagonalization with overlap
     ethr =  5.81E-06,  avg # of iterations =  3.0

     negative rho (up, down):  6.822E-04 3.608E-03

     total cpu time spent up to now is     1205.8 secs

     total energy              =    -734.75281944 Ry
     Harris-Foulkes estimate   =    -734.75454305 Ry
     estimated scf accuracy    <       0.02500703 Ry

     total magnetization       =     1.00 Bohr mag/cell
     absolute magnetization    =     1.14 Bohr mag/cell

     iteration # 12     ecut=    70.00 Ry     beta= 0.70
     Davidson diagonalization with overlap
     ethr =  5.81E-06,  avg # of iterations =  1.0

     negative rho (up, down):  6.842E-04 2.784E-03

     total cpu time spent up to now is     1297.5 secs

     total energy              =    -734.75342755 Ry
     Harris-Foulkes estimate   =    -734.75355598 Ry
     estimated scf accuracy    <       0.00214117 Ry

     total magnetization       =     1.00 Bohr mag/cell
     absolute magnetization    =     1.11 Bohr mag/cell

     iteration # 13     ecut=    70.00 Ry     beta= 0.70
     Davidson diagonalization with overlap
     ethr =  1.02E-06,  avg # of iterations =  7.5

     negative rho (up, down):  6.785E-04 2.202E-03

     total cpu time spent up to now is     1393.3 secs

     total energy              =    -734.75349674 Ry
     Harris-Foulkes estimate   =    -734.75354179 Ry
     estimated scf accuracy    <       0.00088217 Ry

     total magnetization       =     1.00 Bohr mag/cell
     absolute magnetization    =     1.10 Bohr mag/cell

     iteration # 14     ecut=    70.00 Ry     beta= 0.70
     Davidson diagonalization with overlap
     ethr =  4.22E-07,  avg # of iterations =  1.5

     negative rho (up, down):  6.711E-04 1.754E-03

     total cpu time spent up to now is     1484.8 secs

     total energy              =    -734.75354231 Ry
     Harris-Foulkes estimate   =    -734.75354260 Ry
     estimated scf accuracy    <       0.00004732 Ry

     total magnetization       =     1.00 Bohr mag/cell
     absolute magnetization    =     1.09 Bohr mag/cell

     iteration # 15     ecut=    70.00 Ry     beta= 0.70
     Davidson diagonalization with overlap
     ethr =  2.26E-08,  avg # of iterations =  3.0

     negative rho (up, down):  6.698E-04 1.754E-03

     total cpu time spent up to now is     1594.1 secs

     total energy              =    -734.75355065 Ry
     Harris-Foulkes estimate   =    -734.75355517 Ry
     estimated scf accuracy    <       0.00008349 Ry

     total magnetization       =     1.00 Bohr mag/cell
     absolute magnetization    =     1.08 Bohr mag/cell

     iteration # 16     ecut=    70.00 Ry     beta= 0.70
     Davidson diagonalization with overlap
     ethr =  2.26E-08,  avg # of iterations =  1.5

     negative rho (up, down):  6.686E-04 1.753E-03

     total cpu time spent up to now is     1685.9 secs

     total energy              =    -734.75355567 Ry
     Harris-Foulkes estimate   =    -734.75355453 Ry
     estimated scf accuracy    <       0.00006103 Ry

     total magnetization       =     1.00 Bohr mag/cell
     absolute magnetization    =     1.07 Bohr mag/cell

     iteration # 17     ecut=    70.00 Ry     beta= 0.70
     Davidson diagonalization with overlap
     ethr =  2.26E-08,  avg # of iterations =  1.0

     negative rho (up, down):  6.669E-04 1.781E-03

     total cpu time spent up to now is     1777.1 secs

     total energy              =    -734.75355585 Ry
     Harris-Foulkes estimate   =    -734.75355652 Ry
     estimated scf accuracy    <       0.00007571 Ry

     total magnetization       =     1.00 Bohr mag/cell
     absolute magnetization    =     1.07 Bohr mag/cell

     iteration # 18     ecut=    70.00 Ry     beta= 0.70
     Davidson diagonalization with overlap
     ethr =  2.26E-08,  avg # of iterations =  1.0

     negative rho (up, down):  6.670E-04 1.770E-03

     total cpu time spent up to now is     1868.7 secs

     total energy              =    -734.75355665 Ry
     Harris-Foulkes estimate   =    -734.75355696 Ry
     estimated scf accuracy    <       0.00002614 Ry

     total magnetization       =     1.00 Bohr mag/cell
     absolute magnetization    =     1.07 Bohr mag/cell

     iteration # 19     ecut=    70.00 Ry     beta= 0.70
     Davidson diagonalization with overlap
     ethr =  1.25E-08,  avg # of iterations =  1.0

     negative rho (up, down):  6.670E-04 1.774E-03

     total cpu time spent up to now is     1960.3 secs

     total energy              =    -734.75355638 Ry
     Harris-Foulkes estimate   =    -734.75355705 Ry
     estimated scf accuracy    <       0.00002481 Ry

     total magnetization       =     1.00 Bohr mag/cell
     absolute magnetization    =     1.07 Bohr mag/cell

     iteration # 20     ecut=    70.00 Ry     beta= 0.70
     Davidson diagonalization with overlap
     ethr =  1.19E-08,  avg # of iterations =  1.0

     negative rho (up, down):  6.664E-04 1.783E-03

     total cpu time spent up to now is     2051.9 secs

     total energy              =    -734.75355673 Ry
     Harris-Foulkes estimate   =    -734.75355704 Ry
     estimated scf accuracy    <       0.00000450 Ry

     total magnetization       =     1.00 Bohr mag/cell
     absolute magnetization    =     1.07 Bohr mag/cell

     iteration # 21     ecut=    70.00 Ry     beta= 0.70
     Davidson diagonalization with overlap
     ethr =  2.15E-09,  avg # of iterations =  2.5

     negative rho (up, down):  6.665E-04 1.783E-03

     total cpu time spent up to now is     2148.7 secs

     total energy              =    -734.75355716 Ry
     Harris-Foulkes estimate   =    -734.75355731 Ry
     estimated scf accuracy    <       0.00000146 Ry

     total magnetization       =     1.00 Bohr mag/cell
     absolute magnetization    =     1.07 Bohr mag/cell

     iteration # 22     ecut=    70.00 Ry     beta= 0.70
     Davidson diagonalization with overlap
     ethr =  6.98E-10,  avg # of iterations =  2.0

     negative rho (up, down):  6.663E-04 1.786E-03

     total cpu time spent up to now is     2241.1 secs

     total energy              =    -734.75355718 Ry
     Harris-Foulkes estimate   =    -734.75355731 Ry
     estimated scf accuracy    <       0.00000202 Ry

     total magnetization       =     1.00 Bohr mag/cell
     absolute magnetization    =     1.07 Bohr mag/cell

     iteration # 23     ecut=    70.00 Ry     beta= 0.70
     Davidson diagonalization with overlap
     ethr =  6.98E-10,  avg # of iterations =  1.5

     negative rho (up, down):  6.664E-04 1.784E-03

     total cpu time spent up to now is     2333.1 secs

     total energy              =    -734.75355727 Ry
     Harris-Foulkes estimate   =    -734.75355730 Ry
     estimated scf accuracy    <       0.00000137 Ry

     total magnetization       =     1.00 Bohr mag/cell
     absolute magnetization    =     1.06 Bohr mag/cell

     iteration # 24     ecut=    70.00 Ry     beta= 0.70
     Davidson diagonalization with overlap
     ethr =  6.57E-10,  avg # of iterations =  1.0

     negative rho (up, down):  6.666E-04 1.778E-03

     total cpu time spent up to now is     2424.7 secs

     total energy              =    -734.75355688 Ry
     Harris-Foulkes estimate   =    -734.75355732 Ry
     estimated scf accuracy    <       0.00000197 Ry

     total magnetization       =     1.00 Bohr mag/cell
     absolute magnetization    =     1.06 Bohr mag/cell

     iteration # 25     ecut=    70.00 Ry     beta= 0.70
     Davidson diagonalization with overlap
     ethr =  6.57E-10,  avg # of iterations =  2.5

     negative rho (up, down):  6.667E-04 1.776E-03

     Magnetic moment per site:
     atom:    1    charge:    0.2123    magn:    0.0000    constr:    0.0000
     atom:    2    charge:    0.2120    magn:    0.0000    constr:    0.0000
     atom:    3    charge:    1.7158    magn:    0.0018    constr:    0.0000
     atom:    4    charge:    1.7154    magn:    0.0021    constr:    0.0000
     atom:    5    charge:    1.7169    magn:    0.0000    constr:    0.0000
     atom:    6    charge:    1.7146    magn:   -0.0001    constr:    0.0000
     atom:    7    charge:    1.7170    magn:   -0.0000    constr:    0.0000
     atom:    8    charge:    1.7152    magn:    0.0015    constr:    0.0000
     atom:    9    charge:    1.7157    magn:    0.0014    constr:    0.0000
     atom:   10    charge:    1.7170    magn:   -0.0009    constr:    0.0000
     atom:   11    charge:    1.7160    magn:    0.0005    constr:    0.0000
     atom:   12    charge:    1.7170    magn:   -0.0008    constr:    0.0000
     atom:   13    charge:    1.7160    magn:    0.0005    constr:    0.0000
     atom:   14    charge:    1.7169    magn:   -0.0011    constr:    0.0000
     atom:   15    charge:    1.7132    magn:    0.0085    constr:    0.0000
     atom:   16    charge:    1.7108    magn:    0.0141    constr:    0.0000
     atom:   17    charge:    1.7214    magn:    0.0029    constr:    0.0000
     atom:   18    charge:    1.7110    magn:    0.0132    constr:    0.0000
     atom:   19    charge:    1.7128    magn:    0.0059    constr:    0.0000
     atom:   20    charge:    1.7168    magn:   -0.0008    constr:    0.0000
     atom:   21    charge:    1.7160    magn:    0.0004    constr:    0.0000
     atom:   22    charge:    1.7170    magn:   -0.0009    constr:    0.0000
     atom:   23    charge:    1.7158    magn:    0.0015    constr:    0.0000
     atom:   24    charge:    1.7152    magn:    0.0016    constr:    0.0000
     atom:   25    charge:    1.7129    magn:    0.0076    constr:    0.0000
     atom:   26    charge:    1.7104    magn:    0.0107    constr:    0.0000
     atom:   27    charge:    1.8202    magn:    0.0900    constr:    0.0000
     atom:   28    charge:    7.0289    magn:    0.1546    constr:    0.0000
     atom:   29    charge:    1.8146    magn:    0.0660    constr:    0.0000
     atom:   30    charge:    1.7113    magn:    0.0149    constr:    0.0000
     atom:   31    charge:    1.7129    magn:    0.0064    constr:    0.0000
     atom:   32    charge:    1.7153    magn:    0.0018    constr:    0.0000
     atom:   33    charge:    1.7170    magn:   -0.0000    constr:    0.0000
     atom:   34    charge:    1.7153    magn:   -0.0000    constr:    0.0000
     atom:   35    charge:    1.7169    magn:    0.0001    constr:    0.0000
     atom:   36    charge:    1.7146    magn:   -0.0002    constr:    0.0000
     atom:   37    charge:    1.7214    magn:    0.0038    constr:    0.0000
     atom:   38    charge:    1.7105    magn:    0.0104    constr:    0.0000
     atom:   39    charge:    1.8184    magn:    0.0824    constr:    0.0000
     atom:   40    charge:    1.7111    magn:    0.0155    constr:    0.0000
     atom:   41    charge:    1.7212    magn:    0.0025    constr:    0.0000
     atom:   42    charge:    1.7146    magn:   -0.0000    constr:    0.0000
     atom:   43    charge:    1.7169    magn:    0.0000    constr:    0.0000
     atom:   44    charge:    1.7153    magn:    0.0000    constr:    0.0000
     atom:   45    charge:    1.7210    magn:   -0.0007    constr:    0.0000
     atom:   46    charge:    1.7153    magn:   -0.0000    constr:    0.0000
     atom:   47    charge:    1.7169    magn:    0.0001    constr:    0.0000
     atom:   48    charge:    1.7152    magn:    0.0014    constr:    0.0000
     atom:   49    charge:    1.7127    magn:    0.0067    constr:    0.0000
     atom:   50    charge:    1.7169    magn:   -0.0010    constr:    0.0000
     atom:   51    charge:    1.7132    magn:    0.0081    constr:    0.0000
     atom:   52    charge:    1.7154    magn:    0.0022    constr:    0.0000

     total cpu time spent up to now is     2530.4 secs

     End of self-consistent calculation

 ------ SPIN UP ------------


          k = 0.0000 0.0000 0.0000 ( 87777 PWs)   bands (ev):

   -19.8477 -19.0108 -18.9978 -18.9127 -18.9096 -18.8497 -18.7720 -17.1762
   -17.1735 -17.1382 -17.0988 -17.0916 -16.8171 -16.3363 -16.3322 -16.1924
   -16.1879 -16.1682 -15.7755 -14.4320 -14.4268 -14.1353 -14.0422 -14.0404
   -13.5848 -13.1733 -13.1731 -13.0867 -12.9472 -12.9419 -12.6380 -12.3216
   -12.3201 -11.7216 -11.6163 -11.6145 -11.1921 -10.9438 -10.9392  -9.5289
    -9.3712  -9.3699  -9.2502  -9.2409  -9.2405  -9.2314  -9.1470  -9.1024
    -9.0678  -9.0663  -8.9656  -8.7253  -8.7220  -8.0263  -7.9026  -7.8512
    -7.6718  -7.6688  -7.5434  -7.5401  -7.2158  -6.9208  -6.8509  -6.8432
    -6.8226  -6.7890  -6.7287  -6.7163  -6.6260  -6.6229  -6.5820  -6.5765
    -6.5729  -6.5294  -6.4068  -6.4014  -6.1760  -5.6203  -5.6194  -5.0346
    -4.9676  -4.9637  -4.8923  -4.8918  -4.7696  -4.7328  -4.7123  -4.5471
    -4.5322  -4.4347  -3.8627  -3.8479  -3.8263  -3.8242  -3.7888  -3.6473
    -3.6311  -3.3948  -1.8918  -1.8351  -1.8330  -1.7458  -1.7407  -1.2426
    -0.8394  -0.8363   0.9012   0.9387   0.9413   1.0870   1.0883   1.4867
     2.4894   2.7852   2.7879   2.8308   2.9240   2.9256   3.3646   3.4927
     3.6303   3.7227   3.7279   3.7471   3.9286   4.2339

     occupation numbers 
     1.0000   1.0000   1.0000   1.0000   1.0000   1.0000   1.0000   1.0000
     1.0000   1.0000   1.0000   1.0000   1.0000   1.0000   1.0000   1.0000
     1.0000   1.0000   1.0000   1.0000   1.0000   1.0000   1.0000   1.0000
     1.0000   1.0000   1.0000   1.0000   1.0000   1.0000   1.0000   1.0000
     1.0000   1.0000   1.0000   1.0000   1.0000   1.0000   1.0000   1.0000
     1.0000   1.0000   1.0000   1.0000   1.0000   1.0000   1.0000   1.0000
     1.0000   1.0000   1.0000   1.0000   1.0000   1.0000   1.0000   1.0000
     1.0000   1.0000   1.0000   1.0000   1.0000   1.0000   1.0000   1.0000
     1.0000   1.0000   1.0000   1.0000   1.0000   1.0000   1.0000   1.0000
     1.0000   1.0000   1.0000   1.0000   1.0000   1.0000   1.0000   1.0000
     1.0000   1.0000   1.0000   1.0000   1.0000   1.0000   1.0000   1.0000
     1.0000   1.0000   1.0000   1.0000   1.0000   1.0000   1.0000   1.0000
     1.0000   1.0000   1.0000   1.0000   1.0000   1.0000   1.0000   1.0000
     0.5848   0.4152   0.0000   0.0000   0.0000   0.0000   0.0000   0.0000
     0.0000   0.0000   0.0000   0.0000   0.0000   0.0000   0.0000   0.0000
     0.0000   0.0000   0.0000   0.0000   0.0000   0.0000

 ------ SPIN DOWN ----------


          k = 0.0000 0.0000 0.0000 ( 87777 PWs)   bands (ev):

   -19.8229 -18.9801 -18.9639 -18.9060 -18.9026 -18.8468 -18.6966 -17.1369
   -17.1350 -17.1221 -17.0793 -17.0669 -16.7838 -16.2997 -16.2943 -16.1730
   -16.1638 -16.1611 -15.7001 -14.3406 -14.3385 -14.1112 -14.0343 -14.0322
   -13.5425 -13.1481 -13.1476 -13.0737 -12.9134 -12.9025 -12.5736 -12.2134
   -12.2068 -11.7020 -11.5843 -11.5773 -11.0876 -10.8132 -10.8084  -9.4883
    -9.3524  -9.3498  -9.2424  -9.2321  -9.2317  -9.2192  -9.0154  -9.0096
    -8.9848  -8.9218  -8.8401  -8.6864  -8.6776  -8.0120  -7.8784  -7.8294
    -7.6223  -7.6207  -7.5272  -7.5214  -7.1945  -6.8766  -6.8498  -6.8386
    -6.7899  -6.7820  -6.7112  -6.7022  -6.6040  -6.6012  -6.5748  -6.5720
    -6.5688  -6.5231  -6.3657  -6.3605  -6.1575  -5.5945  -5.5901  -5.0156
    -4.9539  -4.8724  -4.8720  -4.7803  -4.7645  -4.7316  -4.6943  -4.5370
    -4.5213  -4.4171  -3.8586  -3.8428  -3.8004  -3.7992  -3.7892  -3.6285
    -3.6139  -3.3545  -1.8880  -1.8333  -1.8311  -1.7231  -1.7189  -1.2061
    -0.4747  -0.3982   0.9044   0.9422   0.9446   1.1082   1.1133   1.4988
     2.4899   2.7878   2.7898   2.8317   2.9505   2.9538   3.3714   3.4998
     3.6325   3.7223   3.7272   3.7460   3.9345   4.2339

     occupation numbers 
     1.0000   1.0000   1.0000   1.0000   1.0000   1.0000   1.0000   1.0000
     1.0000   1.0000   1.0000   1.0000   1.0000   1.0000   1.0000   1.0000
     1.0000   1.0000   1.0000   1.0000   1.0000   1.0000   1.0000   1.0000
     1.0000   1.0000   1.0000   1.0000   1.0000   1.0000   1.0000   1.0000
     1.0000   1.0000   1.0000   1.0000   1.0000   1.0000   1.0000   1.0000
     1.0000   1.0000   1.0000   1.0000   1.0000   1.0000   1.0000   1.0000
     1.0000   1.0000   1.0000   1.0000   1.0000   1.0000   1.0000   1.0000
     1.0000   1.0000   1.0000   1.0000   1.0000   1.0000   1.0000   1.0000
     1.0000   1.0000   1.0000   1.0000   1.0000   1.0000   1.0000   1.0000
     1.0000   1.0000   1.0000   1.0000   1.0000   1.0000   1.0000   1.0000
     1.0000   1.0000   1.0000   1.0000   1.0000   1.0000   1.0000   1.0000
     1.0000   1.0000   1.0000   1.0000   1.0000   1.0000   1.0000   1.0000
     1.0000   1.0000   1.0000   1.0000   1.0000   1.0000   1.0000   1.0000
     0.0000   0.0000   0.0000   0.0000   0.0000   0.0000   0.0000   0.0000
     0.0000   0.0000   0.0000   0.0000   0.0000   0.0000   0.0000   0.0000
     0.0000   0.0000   0.0000   0.0000   0.0000   0.0000

     the Fermi energy is    -0.8360 ev

!    total energy              =    -734.75355723 Ry
     Harris-Foulkes estimate   =    -734.75355732 Ry
     estimated scf accuracy    <       0.00000023 Ry

     The total energy is the sum of the following terms:

     one-electron contribution =   -2504.05747660 Ry
     hartree contribution      =    1307.73465853 Ry
     xc contribution           =    -275.95593465 Ry
     ewald contribution        =     737.52551389 Ry
     smearing contrib. (-TS)   =      -0.00031840 Ry

     total magnetization       =     1.00 Bohr mag/cell
     absolute magnetization    =     1.06 Bohr mag/cell

     convergence has been achieved in  25 iterations

     Writing output data file cobre-sixhollow-distance-2.4.save/

     init_run     :     70.58s CPU     71.72s WALL (       1 calls)
     electrons    :   2413.59s CPU   2457.70s WALL (       1 calls)

     Called by init_run:
     wfcinit      :     40.99s CPU     41.24s WALL (       1 calls)
     wfcinit:atom :      0.06s CPU      0.09s WALL (       2 calls)
     wfcinit:wfcr :     40.55s CPU     40.73s WALL (       2 calls)
     potinit      :     12.20s CPU     12.55s WALL (       1 calls)
     hinit0       :      8.83s CPU      8.87s WALL (       1 calls)

     Called by electrons:
     c_bands      :   1503.68s CPU   1511.49s WALL (      25 calls)
     sum_band     :    523.79s CPU    538.86s WALL (      25 calls)
     v_of_rho     :    188.67s CPU    196.96s WALL (      26 calls)
     v_h          :      1.96s CPU      2.03s WALL (      26 calls)
     v_xc         :    186.71s CPU    194.93s WALL (      26 calls)
     newd         :    194.98s CPU    208.33s WALL (      26 calls)
     mix_rho      :     11.03s CPU     11.22s WALL (      25 calls)

     Called by c_bands:
     init_us_2    :      4.51s CPU      4.54s WALL (     102 calls)
     cegterg      :   1492.30s CPU   1500.06s WALL (      50 calls)

     Called by sum_band:
     sum_band:bec :      0.04s CPU      0.04s WALL (      50 calls)
     addusdens    :    331.71s CPU    345.73s WALL (      25 calls)

     Called by *egterg:
     h_psi        :    794.65s CPU    800.15s WALL (     181 calls)
     s_psi        :    269.57s CPU    269.68s WALL (     181 calls)
     g_psi        :      0.83s CPU      0.83s WALL (     129 calls)
     cdiaghg      :     10.73s CPU     10.73s WALL (     179 calls)
     cegterg:over :    182.29s CPU    182.35s WALL (     129 calls)
     cegterg:upda :    106.66s CPU    107.29s WALL (     129 calls)
     cegterg:last :     81.87s CPU     81.89s WALL (      50 calls)

     Called by h_psi:
     h_psi:pot    :    793.77s CPU    798.23s WALL (     181 calls)
     h_psi:calbec :    266.02s CPU    266.12s WALL (     181 calls)
     vloc_psi     :    258.65s CPU    262.93s WALL (     181 calls)
     add_vuspsi   :    269.10s CPU    269.17s WALL (     181 calls)

     General routines
     calbec       :    383.48s CPU    383.62s WALL (     231 calls)
     fft          :    108.40s CPU    111.72s WALL (    1944 calls)
     ffts         :      1.88s CPU      1.96s WALL (     102 calls)
     fftw         :    278.36s CPU    283.04s WALL (   34818 calls)
     interpolate  :      4.40s CPU      4.54s WALL (      52 calls)

     Parallel routines
     fft_scatt_xy :     69.16s CPU     70.09s WALL (   36864 calls)
     fft_scatt_yz :    131.41s CPU    137.25s WALL (   36864 calls)

     PWSCF        :  41m25.54s CPU  42m11.10s WALL


   This run was terminated on:  20:30:33   7Sep2022            

=------------------------------------------------------------------------------=
   JOB DONE.
=------------------------------------------------------------------------------=
