
     Program PWSCF v.6.4.1 starts on  7Sep2022 at 19: 8:15 

     This program is part of the open-source Quantum ESPRESSO suite
     for quantum simulation of materials; please cite
         "P. Giannozzi et al., J. Phys.:Condens. Matter 21 395502 (2009);
         "P. Giannozzi et al., J. Phys.:Condens. Matter 29 465901 (2017);
          URL http://www.quantum-espresso.org", 
     in publications or presentations arising from this work. More details at
     http://www.quantum-espresso.org/quote

     Parallel version (MPI), running on     6 processors

     MPI processes distributed on     1 nodes
     R & G space division:  proc/nbgrp/npool/nimage =       6
     Reading input from distance-2.6.in

     Current dimensions of program PWSCF are:
     Max number of different atomic species (ntypx) = 10
     Max number of k-points (npk) =  40000
     Max angular momentum in pseudopotentials (lmaxx) =  3

     IMPORTANT: XC functional enforced from input :
     Exchange-correlation      = RVV10 ( 1  4 13  4 3 0)
     Any further DFT definition will be discarded
     Please, verify this is what you really want

               file H.pbe-rrkjus.UPF: wavefunction(s)  1S renormalized
               file Cu.pbe-dn-rrkjus_psl.1.0.0.UPF: wavefunction(s)  3D renormalized

     Subspace diagonalization in iterative solution of the eigenvalue problem:
     a serial algorithm will be used


     Parallelization info
     --------------------
     sticks:   dense  smooth     PW     G-vecs:    dense   smooth      PW
     Min        3051    1746    432               270999   117096   14629
     Max        3053    1747    437               271001   117099   14630
     Sum       18313   10477   2611              1626001   702581   87777



     bravais-lattice index     =            4
     lattice parameter (alat)  =      23.2937  a.u.
     unit-cell volume          =    8879.8548 (a.u.)^3
     number of atoms/cell      =           52
     number of atomic types    =            3
     number of electrons       =       209.00
     number of Kohn-Sham states=          126
     kinetic-energy cutoff     =      70.0000  Ry
     charge density cutoff     =     490.0000  Ry
     convergence threshold     =      1.0E-06
     mixing beta               =       0.7000
     number of iterations used =            8  plain     mixing
     Exchange-correlation      = RVV10 ( 1  4 13  4 3 0)

     celldm(1)=  23.293684  celldm(2)=   0.000000  celldm(3)=   0.811261
     celldm(4)=   0.000000  celldm(5)=   0.000000  celldm(6)=   0.000000

     crystal axes: (cart. coord. in units of alat)
               a(1) = (   1.000000   0.000000   0.000000 )  
               a(2) = (  -0.500000   0.866025   0.000000 )  
               a(3) = (   0.000000   0.000000   0.811261 )  

     reciprocal axes: (cart. coord. in units 2 pi/alat)
               b(1) = (  1.000000  0.577350 -0.000000 )  
               b(2) = (  0.000000  1.154701  0.000000 )  
               b(3) = (  0.000000 -0.000000  1.232649 )  


     PseudoPot. # 1 for H  read from file:
     /home/cristian/Escritorio/Proyecto_Grafeno/pseudopotenciales/H.pbe-rrkjus.UPF
     MD5 check sum: 7cc9d459525c9a0585f487a71c3c9563
     Pseudo is Ultrasoft, Zval =  1.0
     Generated by new atomic code, or converted to UPF format
     Using radial grid of 1061 points,  2 beta functions with: 
                l(1) =   0
                l(2) =   0
     Q(r) pseudized with 0 coefficients 


     PseudoPot. # 2 for C  read from file:
     /home/cristian/Escritorio/Proyecto_Grafeno/pseudopotenciales/C.pbe-n-rrkjus_psl.1.0.0.UPF
     MD5 check sum: 1fdd950c42eb37d8afe3dd2f8d12311e
     Pseudo is Ultrasoft + core correction, Zval =  4.0
     Generated using "atomic" code by A. Dal Corso v.6.3MaX
     Using radial grid of 1073 points,  4 beta functions with: 
                l(1) =   0
                l(2) =   0
                l(3) =   1
                l(4) =   1
     Q(r) pseudized with 0 coefficients 


     PseudoPot. # 3 for Cu read from file:
     /home/cristian/Escritorio/Proyecto_Grafeno/pseudopotenciales/Cu.pbe-dn-rrkjus_psl.1.0.0.UPF
     MD5 check sum: ba3d6c84e19846e79d48cdc68ff7152b
     Pseudo is Ultrasoft + core correction, Zval = 11.0
     Generated using "atomic" code by A. Dal Corso v.6.3
     Using radial grid of 1199 points,  6 beta functions with: 
                l(1) =   0
                l(2) =   0
                l(3) =   1
                l(4) =   1
                l(5) =   2
                l(6) =   2
     Q(r) pseudized with 0 coefficients 


     vdW kernel table read from file rVV10_kernel_table
     MD5 check sum: b8e2538accc0c0b3206b45ba4daaba6c

     atomic species   valence    mass     pseudopotential
        H              1.00     1.00794     H ( 1.00)
        C              4.00    12.01070     C ( 1.00)
        Cu            11.00    63.54600     Cu( 1.00)

     Starting magnetic structure 
     atomic species   magnetization
        H            0.500
        C            0.300
        Cu           0.800

     No symmetry found


                                    s                        frac. trans.

      isym =  1     identity                                     

 cryst.   s( 1) = (     1          0          0      )
                  (     0          1          0      )
                  (     0          0          1      )

 cart.    s( 1) = (  1.0000000  0.0000000  0.0000000 )
                  (  0.0000000  1.0000000  0.0000000 )
                  (  0.0000000  0.0000000  1.0000000 )


     point group C_1 (1)    
     there are  1 classes
     the character table:

       E    
A      1.00

     the symmetry operations in each class and the name of the first element:

     E        1
          identity                                               

   Cartesian axes

     site n.     atom                  positions (alat units)
         1           H   tau(   1) = (   0.2694937   0.4041452   0.2109279  )
         2           H   tau(   2) = (   0.3305063   0.4041452   0.2109279  )
         3           C   tau(   3) = (   0.0000000   0.0000000   0.0000000  )
         4           C   tau(   4) = (   0.0000000   0.1154701   0.0000000  )
         5           C   tau(   5) = (  -0.1000000   0.1732051   0.0000000  )
         6           C   tau(   6) = (  -0.1000000   0.2886751   0.0000000  )
         7           C   tau(   7) = (  -0.2000000   0.3464102   0.0000000  )
         8           C   tau(   8) = (  -0.2000000   0.4618802   0.0000000  )
         9           C   tau(   9) = (  -0.3000000   0.5196152   0.0000000  )
        10           C   tau(  10) = (  -0.3000000   0.6350853   0.0000000  )
        11           C   tau(  11) = (  -0.4000000   0.6928203   0.0000000  )
        12           C   tau(  12) = (  -0.4000000   0.8082904   0.0000000  )
        13           C   tau(  13) = (   0.2000000   0.0000000   0.0000000  )
        14           C   tau(  14) = (   0.2000000   0.1154701   0.0000000  )
        15           C   tau(  15) = (   0.1000000   0.1732051   0.0000000  )
        16           C   tau(  16) = (   0.1000000   0.2886751   0.0000000  )
        17           C   tau(  17) = (   0.0000000   0.3464102   0.0000000  )
        18           C   tau(  18) = (   0.0000000   0.4618802   0.0000000  )
        19           C   tau(  19) = (  -0.1000000   0.5196152   0.0000000  )
        20           C   tau(  20) = (  -0.1000000   0.6350853   0.0000000  )
        21           C   tau(  21) = (  -0.2000000   0.6928203   0.0000000  )
        22           C   tau(  22) = (  -0.2000000   0.8082904   0.0000000  )
        23           C   tau(  23) = (   0.4000000   0.0000000   0.0000000  )
        24           C   tau(  24) = (   0.4000000   0.1154701   0.0000000  )
        25           C   tau(  25) = (   0.3000000   0.1732051   0.0000000  )
        26           C   tau(  26) = (   0.3000000   0.2886751   0.0000000  )
        27           C   tau(  27) = (   0.2000000   0.3464102   0.0000000  )
        28           Cu  tau(  28) = (   0.2000000   0.4618802   0.0000000  )
        29           C   tau(  29) = (   0.1000000   0.5196152   0.0000000  )
        30           C   tau(  30) = (   0.1000000   0.6350853   0.0000000  )
        31           C   tau(  31) = (   0.0000000   0.6928203   0.0000000  )
        32           C   tau(  32) = (   0.0000000   0.8082904   0.0000000  )
        33           C   tau(  33) = (   0.6000000   0.0000000   0.0000000  )
        34           C   tau(  34) = (   0.6000000   0.1154701   0.0000000  )
        35           C   tau(  35) = (   0.5000000   0.1732051   0.0000000  )
        36           C   tau(  36) = (   0.5000000   0.2886751   0.0000000  )
        37           C   tau(  37) = (   0.4000000   0.3464102   0.0000000  )
        38           C   tau(  38) = (   0.4000000   0.4618802   0.0000000  )
        39           C   tau(  39) = (   0.3000000   0.5196152   0.0000000  )
        40           C   tau(  40) = (   0.3000000   0.6350853   0.0000000  )
        41           C   tau(  41) = (   0.2000000   0.6928203   0.0000000  )
        42           C   tau(  42) = (   0.2000000   0.8082904   0.0000000  )
        43           C   tau(  43) = (   0.8000000   0.0000000   0.0000000  )
        44           C   tau(  44) = (   0.8000000   0.1154701   0.0000000  )
        45           C   tau(  45) = (   0.7000000   0.1732051   0.0000000  )
        46           C   tau(  46) = (   0.7000000   0.2886751   0.0000000  )
        47           C   tau(  47) = (   0.6000000   0.3464102   0.0000000  )
        48           C   tau(  48) = (   0.6000000   0.4618802   0.0000000  )
        49           C   tau(  49) = (   0.5000000   0.5196152   0.0000000  )
        50           C   tau(  50) = (   0.5000000   0.6350853   0.0000000  )
        51           C   tau(  51) = (   0.4000000   0.6928203   0.0000000  )
        52           C   tau(  52) = (   0.4000000   0.8082904   0.0000000  )

   Crystallographic axes

     site n.     atom                  positions (cryst. coord.)
         1           H   tau(   1) = (  0.5028270  0.4666667  0.2600000  )
         2           H   tau(   2) = (  0.5638397  0.4666667  0.2600000  )
         3           C   tau(   3) = (  0.0000000  0.0000000  0.0000000  )
         4           C   tau(   4) = (  0.0666667  0.1333333  0.0000000  )
         5           C   tau(   5) = (  0.0000000  0.2000000  0.0000000  )
         6           C   tau(   6) = (  0.0666667  0.3333333  0.0000000  )
         7           C   tau(   7) = (  0.0000000  0.4000000  0.0000000  )
         8           C   tau(   8) = (  0.0666667  0.5333333  0.0000000  )
         9           C   tau(   9) = (  0.0000000  0.6000000  0.0000000  )
        10           C   tau(  10) = (  0.0666667  0.7333333  0.0000000  )
        11           C   tau(  11) = (  0.0000000  0.8000000  0.0000000  )
        12           C   tau(  12) = (  0.0666667  0.9333333  0.0000000  )
        13           C   tau(  13) = (  0.2000000  0.0000000  0.0000000  )
        14           C   tau(  14) = (  0.2666667  0.1333333  0.0000000  )
        15           C   tau(  15) = (  0.2000000  0.2000000  0.0000000  )
        16           C   tau(  16) = (  0.2666667  0.3333333  0.0000000  )
        17           C   tau(  17) = (  0.2000000  0.4000000  0.0000000  )
        18           C   tau(  18) = (  0.2666667  0.5333333  0.0000000  )
        19           C   tau(  19) = (  0.2000000  0.6000000  0.0000000  )
        20           C   tau(  20) = (  0.2666667  0.7333333  0.0000000  )
        21           C   tau(  21) = (  0.2000000  0.8000000  0.0000000  )
        22           C   tau(  22) = (  0.2666667  0.9333333  0.0000000  )
        23           C   tau(  23) = (  0.4000000  0.0000000  0.0000000  )
        24           C   tau(  24) = (  0.4666667  0.1333333  0.0000000  )
        25           C   tau(  25) = (  0.4000000  0.2000000  0.0000000  )
        26           C   tau(  26) = (  0.4666667  0.3333333  0.0000000  )
        27           C   tau(  27) = (  0.4000000  0.4000000  0.0000000  )
        28           Cu  tau(  28) = (  0.4666667  0.5333333  0.0000000  )
        29           C   tau(  29) = (  0.4000000  0.6000000  0.0000000  )
        30           C   tau(  30) = (  0.4666667  0.7333333  0.0000000  )
        31           C   tau(  31) = (  0.4000000  0.8000000  0.0000000  )
        32           C   tau(  32) = (  0.4666667  0.9333333  0.0000000  )
        33           C   tau(  33) = (  0.6000000  0.0000000  0.0000000  )
        34           C   tau(  34) = (  0.6666667  0.1333333  0.0000000  )
        35           C   tau(  35) = (  0.6000000  0.2000000  0.0000000  )
        36           C   tau(  36) = (  0.6666667  0.3333333  0.0000000  )
        37           C   tau(  37) = (  0.6000000  0.4000000  0.0000000  )
        38           C   tau(  38) = (  0.6666667  0.5333333  0.0000000  )
        39           C   tau(  39) = (  0.6000000  0.6000000  0.0000000  )
        40           C   tau(  40) = (  0.6666667  0.7333333  0.0000000  )
        41           C   tau(  41) = (  0.6000000  0.8000000  0.0000000  )
        42           C   tau(  42) = (  0.6666667  0.9333333  0.0000000  )
        43           C   tau(  43) = (  0.8000000  0.0000000  0.0000000  )
        44           C   tau(  44) = (  0.8666667  0.1333333  0.0000000  )
        45           C   tau(  45) = (  0.8000000  0.2000000  0.0000000  )
        46           C   tau(  46) = (  0.8666667  0.3333333  0.0000000  )
        47           C   tau(  47) = (  0.8000000  0.4000000  0.0000000  )
        48           C   tau(  48) = (  0.8666667  0.5333333  0.0000000  )
        49           C   tau(  49) = (  0.8000000  0.6000000  0.0000000  )
        50           C   tau(  50) = (  0.8666667  0.7333333  0.0000000  )
        51           C   tau(  51) = (  0.8000000  0.8000000  0.0000000  )
        52           C   tau(  52) = (  0.8666667  0.9333333  0.0000000  )

     number of k points=     1  Marzari-Vanderbilt smearing, width (Ry)=  0.0010
                       cart. coord. in units 2pi/alat
        k(    1) = (   0.0000000   0.0000000   0.0000000), wk =   1.0000000

                       cryst. coord.
        k(    1) = (   0.0000000   0.0000000   0.0000000), wk =   1.0000000

     Dense  grid:  1626001 G-vectors     FFT dimensions: ( 180, 180, 135)

     Smooth grid:   702581 G-vectors     FFT dimensions: ( 125, 125, 108)

     Dynamical RAM for                 wfc:      28.14 MB

     Dynamical RAM for     wfc (w. buffer):      84.42 MB

     Dynamical RAM for           str. fact:      12.41 MB

     Dynamical RAM for           local pot:       0.00 MB

     Dynamical RAM for          nlocal pot:      92.46 MB

     Dynamical RAM for                qrad:      19.73 MB

     Dynamical RAM for          rho,v,vnew:      58.92 MB

     Dynamical RAM for               rhoin:      19.64 MB

     Dynamical RAM for            rho*nmix:     132.32 MB

     Dynamical RAM for           G-vectors:      16.40 MB

     Dynamical RAM for          h,s,v(r/c):      11.63 MB

     Dynamical RAM for          <psi|beta>:       0.80 MB

     Dynamical RAM for                 psi:     112.56 MB

     Dynamical RAM for                hpsi:     112.56 MB

     Dynamical RAM for                spsi:     112.56 MB

     Dynamical RAM for      wfcinit/wfcrot:      93.45 MB

     Dynamical RAM for           addusdens:     975.89 MB

     Estimated static dynamical RAM per process >     486.96 MB

     Estimated max dynamical RAM per process >       1.43 GB

     Estimated total dynamical RAM >       8.57 GB
     Generating pointlists ...
     new r_m :   0.0252 (alat units)  0.5862 (a.u.) for type    1
     new r_m :   0.0476 (alat units)  1.1095 (a.u.) for type    2
     new r_m :   0.0476 (alat units)  1.1095 (a.u.) for type    3

     Check: negative core charge=   -0.000002

     Initial potential from superposition of free atoms

     starting charge  208.80532, renormalised to  209.00000

     negative rho (up, down):  6.733E-05 1.154E-02


---------------------------------------------------------------------------------
Carrying out rVV10 run using the following parameters:
Nqs =      20    Nr_points =    1024   r_max =   100.000
b_value =  6.30000    beta =  0.00901
     q_mesh =  0.00010000  0.00030000  0.00058939  0.00100810
               0.00161396  0.00249058  0.00375900  0.00559430
               0.00824984  0.01209221  0.01765183  0.02569619
               0.03733578  0.05417739  0.07854596  0.11380545
               0.16482331  0.23864234  0.34545298  0.50000000

Gradients computed in Reciprocal space

---------------------------------------------------------------------------------


     Starting wfcs are  207 randomized atomic wfcs

     total cpu time spent up to now is       71.7 secs

     Self-consistent Calculation

     iteration #  1     ecut=    70.00 Ry     beta= 0.70
     Davidson diagonalization with overlap
     ethr =  1.00E-02,  avg # of iterations =  2.0

     negative rho (up, down):  1.606E-04 1.197E-02

     total cpu time spent up to now is      197.1 secs

     total energy              =    -727.86079121 Ry
     Harris-Foulkes estimate   =    -734.87784538 Ry
     estimated scf accuracy    <      13.73170460 Ry

     total magnetization       =     6.85 Bohr mag/cell
     absolute magnetization    =     7.24 Bohr mag/cell

     iteration #  2     ecut=    70.00 Ry     beta= 0.70
     Davidson diagonalization with overlap
     ethr =  6.57E-03,  avg # of iterations =  4.0

     negative rho (up, down):  1.814E-04 1.066E-02

     total cpu time spent up to now is      319.8 secs

     total energy              =    -729.62087432 Ry
     Harris-Foulkes estimate   =    -743.75464376 Ry
     estimated scf accuracy    <      35.21840973 Ry

     total magnetization       =     3.00 Bohr mag/cell
     absolute magnetization    =     3.27 Bohr mag/cell

     iteration #  3     ecut=    70.00 Ry     beta= 0.70
     Davidson diagonalization with overlap
     ethr =  6.57E-03,  avg # of iterations =  4.0

     negative rho (up, down):  2.180E-04 8.947E-03

     total cpu time spent up to now is      425.6 secs

     total energy              =    -732.53408061 Ry
     Harris-Foulkes estimate   =    -735.76623241 Ry
     estimated scf accuracy    <       8.53326224 Ry

     total magnetization       =     1.00 Bohr mag/cell
     absolute magnetization    =     1.62 Bohr mag/cell

     iteration #  4     ecut=    70.00 Ry     beta= 0.70
     Davidson diagonalization with overlap
     ethr =  4.08E-03,  avg # of iterations =  3.0

     negative rho (up, down):  2.698E-04 8.210E-03

     total cpu time spent up to now is      529.2 secs

     total energy              =    -733.68191799 Ry
     Harris-Foulkes estimate   =    -735.21104786 Ry
     estimated scf accuracy    <       6.47701838 Ry

     total magnetization       =     3.00 Bohr mag/cell
     absolute magnetization    =     3.15 Bohr mag/cell

     iteration #  5     ecut=    70.00 Ry     beta= 0.70
     Davidson diagonalization with overlap
     ethr =  3.10E-03,  avg # of iterations =  3.5

     negative rho (up, down):  3.068E-04 1.065E-02

     total cpu time spent up to now is      623.1 secs

     total energy              =    -734.35794075 Ry
     Harris-Foulkes estimate   =    -735.06669406 Ry
     estimated scf accuracy    <       3.31685791 Ry

     total magnetization       =     1.00 Bohr mag/cell
     absolute magnetization    =     1.42 Bohr mag/cell

     iteration #  6     ecut=    70.00 Ry     beta= 0.70
     Davidson diagonalization with overlap
     ethr =  1.59E-03,  avg # of iterations =  2.0

     negative rho (up, down):  3.835E-04 1.519E-02

     total cpu time spent up to now is      715.0 secs

     total energy              =    -734.67102336 Ry
     Harris-Foulkes estimate   =    -734.79300042 Ry
     estimated scf accuracy    <       0.34599513 Ry

     total magnetization       =     1.00 Bohr mag/cell
     absolute magnetization    =     1.35 Bohr mag/cell

     iteration #  7     ecut=    70.00 Ry     beta= 0.70
     Davidson diagonalization with overlap
     ethr =  1.66E-04,  avg # of iterations =  9.0

     negative rho (up, down):  5.188E-04 1.032E-02

     total cpu time spent up to now is      828.1 secs

     total energy              =    -734.72737674 Ry
     Harris-Foulkes estimate   =    -734.79309515 Ry
     estimated scf accuracy    <       0.23124873 Ry

     total magnetization       =     1.00 Bohr mag/cell
     absolute magnetization    =     1.25 Bohr mag/cell

     iteration #  8     ecut=    70.00 Ry     beta= 0.70
     Davidson diagonalization with overlap
     ethr =  1.11E-04,  avg # of iterations =  3.0

     negative rho (up, down):  6.027E-04 4.154E-03

     total cpu time spent up to now is      922.4 secs

     total energy              =    -734.74935771 Ry
     Harris-Foulkes estimate   =    -734.76667205 Ry
     estimated scf accuracy    <       0.06455808 Ry

     total magnetization       =     1.00 Bohr mag/cell
     absolute magnetization    =     1.20 Bohr mag/cell

     iteration #  9     ecut=    70.00 Ry     beta= 0.70
     Davidson diagonalization with overlap
     ethr =  3.09E-05,  avg # of iterations =  5.5

     negative rho (up, down):  6.415E-04 2.888E-03

     total cpu time spent up to now is     1018.6 secs

     total energy              =    -734.75696816 Ry
     Harris-Foulkes estimate   =    -734.75876269 Ry
     estimated scf accuracy    <       0.03198025 Ry

     total magnetization       =     1.00 Bohr mag/cell
     absolute magnetization    =     1.17 Bohr mag/cell

     iteration # 10     ecut=    70.00 Ry     beta= 0.70
     Davidson diagonalization with overlap
     ethr =  1.53E-05,  avg # of iterations =  1.5

     negative rho (up, down):  6.620E-04 2.327E-03

     total cpu time spent up to now is     1109.4 secs

     total energy              =    -734.75771025 Ry
     Harris-Foulkes estimate   =    -734.75838599 Ry
     estimated scf accuracy    <       0.00405625 Ry

     total magnetization       =     1.00 Bohr mag/cell
     absolute magnetization    =     1.14 Bohr mag/cell

     iteration # 11     ecut=    70.00 Ry     beta= 0.70
     Davidson diagonalization with overlap
     ethr =  1.94E-06,  avg # of iterations =  4.5

     negative rho (up, down):  6.695E-04 3.812E-03

     total cpu time spent up to now is     1211.4 secs

     total energy              =    -734.75761874 Ry
     Harris-Foulkes estimate   =    -734.75958721 Ry
     estimated scf accuracy    <       0.02587845 Ry

     total magnetization       =     1.00 Bohr mag/cell
     absolute magnetization    =     1.13 Bohr mag/cell

     iteration # 12     ecut=    70.00 Ry     beta= 0.70
     Davidson diagonalization with overlap
     ethr =  1.94E-06,  avg # of iterations =  2.0

     negative rho (up, down):  6.720E-04 2.521E-03

     total cpu time spent up to now is     1303.0 secs

     total energy              =    -734.75831933 Ry
     Harris-Foulkes estimate   =    -734.75852021 Ry
     estimated scf accuracy    <       0.00289900 Ry

     total magnetization       =     1.00 Bohr mag/cell
     absolute magnetization    =     1.11 Bohr mag/cell

     iteration # 13     ecut=    70.00 Ry     beta= 0.70
     Davidson diagonalization with overlap
     ethr =  1.39E-06,  avg # of iterations =  1.0

     negative rho (up, down):  6.669E-04 2.111E-03

     total cpu time spent up to now is     1393.7 secs

     total energy              =    -734.75845100 Ry
     Harris-Foulkes estimate   =    -734.75849005 Ry
     estimated scf accuracy    <       0.00067838 Ry

     total magnetization       =     1.00 Bohr mag/cell
     absolute magnetization    =     1.10 Bohr mag/cell

     iteration # 14     ecut=    70.00 Ry     beta= 0.70
     Davidson diagonalization with overlap
     ethr =  3.25E-07,  avg # of iterations =  1.5

     negative rho (up, down):  6.592E-04 1.693E-03

     total cpu time spent up to now is     1485.5 secs

     total energy              =    -734.75849827 Ry
     Harris-Foulkes estimate   =    -734.75849464 Ry
     estimated scf accuracy    <       0.00011627 Ry

     total magnetization       =     1.00 Bohr mag/cell
     absolute magnetization    =     1.09 Bohr mag/cell

     iteration # 15     ecut=    70.00 Ry     beta= 0.70
     Davidson diagonalization with overlap
     ethr =  5.56E-08,  avg # of iterations =  2.5

     negative rho (up, down):  6.579E-04 1.695E-03

     total cpu time spent up to now is     1579.2 secs

     total energy              =    -734.75850400 Ry
     Harris-Foulkes estimate   =    -734.75850773 Ry
     estimated scf accuracy    <       0.00022429 Ry

     total magnetization       =     1.00 Bohr mag/cell
     absolute magnetization    =     1.08 Bohr mag/cell

     iteration # 16     ecut=    70.00 Ry     beta= 0.70
     Davidson diagonalization with overlap
     ethr =  5.56E-08,  avg # of iterations =  1.0

     negative rho (up, down):  6.562E-04 1.674E-03

     total cpu time spent up to now is     1670.0 secs

     total energy              =    -734.75850617 Ry
     Harris-Foulkes estimate   =    -734.75850740 Ry
     estimated scf accuracy    <       0.00006004 Ry

     total magnetization       =     1.00 Bohr mag/cell
     absolute magnetization    =     1.08 Bohr mag/cell

     iteration # 17     ecut=    70.00 Ry     beta= 0.70
     Davidson diagonalization with overlap
     ethr =  2.87E-08,  avg # of iterations =  1.0

     negative rho (up, down):  6.549E-04 1.678E-03

     total cpu time spent up to now is     1760.9 secs

     total energy              =    -734.75850818 Ry
     Harris-Foulkes estimate   =    -734.75850812 Ry
     estimated scf accuracy    <       0.00001247 Ry

     total magnetization       =     1.00 Bohr mag/cell
     absolute magnetization    =     1.07 Bohr mag/cell

     iteration # 18     ecut=    70.00 Ry     beta= 0.70
     Davidson diagonalization with overlap
     ethr =  5.97E-09,  avg # of iterations =  2.5

     negative rho (up, down):  6.544E-04 1.686E-03

     total cpu time spent up to now is     1854.2 secs

     total energy              =    -734.75850920 Ry
     Harris-Foulkes estimate   =    -734.75850905 Ry
     estimated scf accuracy    <       0.00000519 Ry

     total magnetization       =     1.00 Bohr mag/cell
     absolute magnetization    =     1.07 Bohr mag/cell

     iteration # 19     ecut=    70.00 Ry     beta= 0.70
     Davidson diagonalization with overlap
     ethr =  2.49E-09,  avg # of iterations =  2.0

     negative rho (up, down):  6.545E-04 1.692E-03

     total cpu time spent up to now is     1946.2 secs

     total energy              =    -734.75850957 Ry
     Harris-Foulkes estimate   =    -734.75850942 Ry
     estimated scf accuracy    <       0.00000616 Ry

     total magnetization       =     1.00 Bohr mag/cell
     absolute magnetization    =     1.07 Bohr mag/cell

     iteration # 20     ecut=    70.00 Ry     beta= 0.70
     Davidson diagonalization with overlap
     ethr =  2.49E-09,  avg # of iterations =  1.0

     negative rho (up, down):  6.540E-04 1.700E-03

     total cpu time spent up to now is     2037.4 secs

     total energy              =    -734.75850928 Ry
     Harris-Foulkes estimate   =    -734.75850974 Ry
     estimated scf accuracy    <       0.00001219 Ry

     total magnetization       =     1.00 Bohr mag/cell
     absolute magnetization    =     1.07 Bohr mag/cell

     iteration # 21     ecut=    70.00 Ry     beta= 0.70
     Davidson diagonalization with overlap
     ethr =  2.49E-09,  avg # of iterations =  2.0

     negative rho (up, down):  6.540E-04 1.693E-03

     total cpu time spent up to now is     2131.9 secs

     total energy              =    -734.75850955 Ry
     Harris-Foulkes estimate   =    -734.75850980 Ry
     estimated scf accuracy    <       0.00000559 Ry

     total magnetization       =     1.00 Bohr mag/cell
     absolute magnetization    =     1.06 Bohr mag/cell

     iteration # 22     ecut=    70.00 Ry     beta= 0.70
     Davidson diagonalization with overlap
     ethr =  2.49E-09,  avg # of iterations =  1.0

     negative rho (up, down):  6.543E-04 1.686E-03

     total cpu time spent up to now is     2223.3 secs

     total energy              =    -734.75850971 Ry
     Harris-Foulkes estimate   =    -734.75850971 Ry
     estimated scf accuracy    <       0.00000150 Ry

     total magnetization       =     1.00 Bohr mag/cell
     absolute magnetization    =     1.06 Bohr mag/cell

     iteration # 23     ecut=    70.00 Ry     beta= 0.70
     Davidson diagonalization with overlap
     ethr =  7.16E-10,  avg # of iterations =  1.0

     negative rho (up, down):  6.546E-04 1.679E-03

     total cpu time spent up to now is     2314.5 secs

     total energy              =    -734.75850973 Ry
     Harris-Foulkes estimate   =    -734.75850977 Ry
     estimated scf accuracy    <       0.00000174 Ry

     total magnetization       =     1.00 Bohr mag/cell
     absolute magnetization    =     1.06 Bohr mag/cell

     iteration # 24     ecut=    70.00 Ry     beta= 0.70
     Davidson diagonalization with overlap
     ethr =  7.16E-10,  avg # of iterations =  1.5

     negative rho (up, down):  6.545E-04 1.684E-03

     Magnetic moment per site:
     atom:    1    charge:    0.2121    magn:    0.0000    constr:    0.0000
     atom:    2    charge:    0.2119    magn:   -0.0000    constr:    0.0000
     atom:    3    charge:    1.7158    magn:    0.0018    constr:    0.0000
     atom:    4    charge:    1.7154    magn:    0.0020    constr:    0.0000
     atom:    5    charge:    1.7169    magn:    0.0000    constr:    0.0000
     atom:    6    charge:    1.7146    magn:   -0.0000    constr:    0.0000
     atom:    7    charge:    1.7170    magn:   -0.0000    constr:    0.0000
     atom:    8    charge:    1.7153    magn:    0.0016    constr:    0.0000
     atom:    9    charge:    1.7158    magn:    0.0015    constr:    0.0000
     atom:   10    charge:    1.7170    magn:   -0.0009    constr:    0.0000
     atom:   11    charge:    1.7160    magn:    0.0005    constr:    0.0000
     atom:   12    charge:    1.7170    magn:   -0.0009    constr:    0.0000
     atom:   13    charge:    1.7160    magn:    0.0006    constr:    0.0000
     atom:   14    charge:    1.7169    magn:   -0.0010    constr:    0.0000
     atom:   15    charge:    1.7131    magn:    0.0079    constr:    0.0000
     atom:   16    charge:    1.7108    magn:    0.0138    constr:    0.0000
     atom:   17    charge:    1.7214    magn:    0.0029    constr:    0.0000
     atom:   18    charge:    1.7109    magn:    0.0133    constr:    0.0000
     atom:   19    charge:    1.7129    magn:    0.0065    constr:    0.0000
     atom:   20    charge:    1.7169    magn:   -0.0009    constr:    0.0000
     atom:   21    charge:    1.7160    magn:    0.0005    constr:    0.0000
     atom:   22    charge:    1.7170    magn:   -0.0009    constr:    0.0000
     atom:   23    charge:    1.7158    magn:    0.0016    constr:    0.0000
     atom:   24    charge:    1.7153    magn:    0.0016    constr:    0.0000
     atom:   25    charge:    1.7129    magn:    0.0074    constr:    0.0000
     atom:   26    charge:    1.7105    magn:    0.0118    constr:    0.0000
     atom:   27    charge:    1.8190    magn:    0.0854    constr:    0.0000
     atom:   28    charge:    7.0286    magn:    0.1548    constr:    0.0000
     atom:   29    charge:    1.8159    magn:    0.0717    constr:    0.0000
     atom:   30    charge:    1.7111    magn:    0.0142    constr:    0.0000
     atom:   31    charge:    1.7129    magn:    0.0067    constr:    0.0000
     atom:   32    charge:    1.7153    magn:    0.0017    constr:    0.0000
     atom:   33    charge:    1.7170    magn:   -0.0000    constr:    0.0000
     atom:   34    charge:    1.7153    magn:    0.0000    constr:    0.0000
     atom:   35    charge:    1.7169    magn:    0.0001    constr:    0.0000
     atom:   36    charge:    1.7146    magn:   -0.0001    constr:    0.0000
     atom:   37    charge:    1.7213    magn:    0.0035    constr:    0.0000
     atom:   38    charge:    1.7106    magn:    0.0116    constr:    0.0000
     atom:   39    charge:    1.8177    magn:    0.0815    constr:    0.0000
     atom:   40    charge:    1.7109    magn:    0.0145    constr:    0.0000
     atom:   41    charge:    1.7213    magn:    0.0027    constr:    0.0000
     atom:   42    charge:    1.7146    magn:   -0.0000    constr:    0.0000
     atom:   43    charge:    1.7170    magn:    0.0000    constr:    0.0000
     atom:   44    charge:    1.7153    magn:    0.0000    constr:    0.0000
     atom:   45    charge:    1.7211    magn:   -0.0007    constr:    0.0000
     atom:   46    charge:    1.7153    magn:   -0.0000    constr:    0.0000
     atom:   47    charge:    1.7169    magn:    0.0000    constr:    0.0000
     atom:   48    charge:    1.7153    magn:    0.0015    constr:    0.0000
     atom:   49    charge:    1.7129    magn:    0.0070    constr:    0.0000
     atom:   50    charge:    1.7169    magn:   -0.0010    constr:    0.0000
     atom:   51    charge:    1.7131    magn:    0.0078    constr:    0.0000
     atom:   52    charge:    1.7154    magn:    0.0020    constr:    0.0000

     total cpu time spent up to now is     2405.3 secs

     End of self-consistent calculation

 ------ SPIN UP ------------


          k = 0.0000 0.0000 0.0000 ( 87777 PWs)   bands (ev):

   -19.8443 -19.0050 -18.9973 -18.9088 -18.9069 -18.8462 -18.7680 -17.1729
   -17.1707 -17.1352 -17.0933 -17.0896 -16.8135 -16.3323 -16.3302 -16.1877
   -16.1854 -16.1648 -15.7720 -14.4278 -14.4251 -14.1324 -14.0388 -14.0376
   -13.5811 -13.1700 -13.1699 -13.0836 -12.9423 -12.9396 -12.6349 -12.3186
   -12.3177 -11.7181 -11.6124 -11.6115 -11.1892 -10.9403 -10.9376  -9.5261
    -9.3677  -9.3671  -9.2470  -9.2375  -9.2373  -9.2281  -9.1251  -9.1017
    -9.0643  -9.0635  -8.9623  -8.7214  -8.7195  -7.9953  -7.8996  -7.8453
    -7.6678  -7.6658  -7.5390  -7.5373  -7.1139  -6.9134  -6.8470  -6.8407
    -6.8199  -6.7857  -6.7227  -6.7151  -6.6223  -6.6206  -6.5784  -6.5727
    -6.5705  -6.5260  -6.4026  -6.3994  -6.2789  -5.6171  -5.6165  -5.0317
    -4.9811  -4.9606  -4.8891  -4.8888  -4.7663  -4.7294  -4.7181  -4.5442
    -4.5340  -4.4532  -3.8578  -3.8494  -3.8226  -3.8214  -3.7864  -3.6434
    -3.6344  -3.4012  -1.8877  -1.8316  -1.8302  -1.7399  -1.7365  -1.2339
    -0.8365  -0.8347   0.9059   0.9424   0.9443   1.0905   1.0918   1.4914
     2.4909   2.7894   2.7907   2.8344   2.9277   2.9284   3.3639   3.4733
     3.6206   3.7228   3.7280   3.7478   3.9240   4.2467

     occupation numbers 
     1.0000   1.0000   1.0000   1.0000   1.0000   1.0000   1.0000   1.0000
     1.0000   1.0000   1.0000   1.0000   1.0000   1.0000   1.0000   1.0000
     1.0000   1.0000   1.0000   1.0000   1.0000   1.0000   1.0000   1.0000
     1.0000   1.0000   1.0000   1.0000   1.0000   1.0000   1.0000   1.0000
     1.0000   1.0000   1.0000   1.0000   1.0000   1.0000   1.0000   1.0000
     1.0000   1.0000   1.0000   1.0000   1.0000   1.0000   1.0000   1.0000
     1.0000   1.0000   1.0000   1.0000   1.0000   1.0000   1.0000   1.0000
     1.0000   1.0000   1.0000   1.0000   1.0000   1.0000   1.0000   1.0000
     1.0000   1.0000   1.0000   1.0000   1.0000   1.0000   1.0000   1.0000
     1.0000   1.0000   1.0000   1.0000   1.0000   1.0000   1.0000   1.0000
     1.0000   1.0000   1.0000   1.0000   1.0000   1.0000   1.0000   1.0000
     1.0000   1.0000   1.0000   1.0000   1.0000   1.0000   1.0000   1.0000
     1.0000   1.0000   1.0000   1.0000   1.0000   1.0000   1.0000   1.0000
     0.5482   0.4518   0.0000   0.0000   0.0000   0.0000   0.0000   0.0000
     0.0000   0.0000   0.0000   0.0000   0.0000   0.0000   0.0000   0.0000
     0.0000   0.0000   0.0000   0.0000   0.0000   0.0000

 ------ SPIN DOWN ----------


          k = 0.0000 0.0000 0.0000 ( 87777 PWs)   bands (ev):

   -19.8194 -18.9736 -18.9640 -18.9021 -18.9000 -18.8434 -18.6925 -17.1336
   -17.1319 -17.1192 -17.0728 -17.0660 -16.7801 -16.2954 -16.2925 -16.1674
   -16.1623 -16.1578 -15.6964 -14.3375 -14.3357 -14.1082 -14.0308 -14.0294
   -13.5388 -13.1447 -13.1445 -13.0706 -12.9073 -12.9013 -12.5703 -12.2092
   -12.2053 -11.6984 -11.5792 -11.5754 -11.0842 -10.8098 -10.8069  -9.4854
    -9.3486  -9.3472  -9.2393  -9.2287  -9.2285  -9.2159  -9.0088  -9.0068
    -8.9600  -8.9247  -8.8371  -8.6814  -8.6763  -7.9831  -7.8754  -7.8234
    -7.6185  -7.6173  -7.5222  -7.5190  -7.0915  -6.8708  -6.8459  -6.8358
    -6.7865  -6.7793  -6.7053  -6.7009  -6.6003  -6.5988  -6.5709  -6.5686
    -6.5665  -6.5198  -6.3615  -6.3586  -6.2621  -5.5906  -5.5879  -5.0127
    -4.9507  -4.8691  -4.8689  -4.7792  -4.7614  -4.7283  -4.7094  -4.5343
    -4.5241  -4.4367  -3.8537  -3.8448  -3.7969  -3.7962  -3.7871  -3.6249
    -3.6166  -3.3619  -1.8839  -1.8296  -1.8282  -1.7177  -1.7146  -1.1975
    -0.4560  -0.4118   0.9089   0.9459   0.9476   1.1125   1.1159   1.5035
     2.4913   2.7917   2.7926   2.8353   2.9544   2.9563   3.3700   3.4806
     3.6226   3.7223   3.7272   3.7467   3.9300   4.2466

     occupation numbers 
     1.0000   1.0000   1.0000   1.0000   1.0000   1.0000   1.0000   1.0000
     1.0000   1.0000   1.0000   1.0000   1.0000   1.0000   1.0000   1.0000
     1.0000   1.0000   1.0000   1.0000   1.0000   1.0000   1.0000   1.0000
     1.0000   1.0000   1.0000   1.0000   1.0000   1.0000   1.0000   1.0000
     1.0000   1.0000   1.0000   1.0000   1.0000   1.0000   1.0000   1.0000
     1.0000   1.0000   1.0000   1.0000   1.0000   1.0000   1.0000   1.0000
     1.0000   1.0000   1.0000   1.0000   1.0000   1.0000   1.0000   1.0000
     1.0000   1.0000   1.0000   1.0000   1.0000   1.0000   1.0000   1.0000
     1.0000   1.0000   1.0000   1.0000   1.0000   1.0000   1.0000   1.0000
     1.0000   1.0000   1.0000   1.0000   1.0000   1.0000   1.0000   1.0000
     1.0000   1.0000   1.0000   1.0000   1.0000   1.0000   1.0000   1.0000
     1.0000   1.0000   1.0000   1.0000   1.0000   1.0000   1.0000   1.0000
     1.0000   1.0000   1.0000   1.0000   1.0000   1.0000   1.0000   1.0000
     0.0000   0.0000   0.0000   0.0000   0.0000   0.0000   0.0000   0.0000
     0.0000   0.0000   0.0000   0.0000   0.0000   0.0000   0.0000   0.0000
     0.0000   0.0000   0.0000   0.0000   0.0000   0.0000

     the Fermi energy is    -0.8337 ev

!    total energy              =    -734.75850957 Ry
     Harris-Foulkes estimate   =    -734.75850979 Ry
     estimated scf accuracy    <       0.00000049 Ry

     The total energy is the sum of the following terms:

     one-electron contribution =   -2499.54232812 Ry
     hartree contribution      =    1305.49105949 Ry
     xc contribution           =    -275.94227185 Ry
     ewald contribution        =     735.23535594 Ry
     smearing contrib. (-TS)   =      -0.00032503 Ry

     total magnetization       =     1.00 Bohr mag/cell
     absolute magnetization    =     1.06 Bohr mag/cell

     convergence has been achieved in  24 iterations

     Writing output data file cobre-sixhollow-distance-2.6.save/

     init_run     :     69.21s CPU     70.53s WALL (       1 calls)
     electrons    :   2291.52s CPU   2333.74s WALL (       1 calls)

     Called by init_run:
     wfcinit      :     40.18s CPU     40.48s WALL (       1 calls)
     wfcinit:atom :      0.05s CPU      0.09s WALL (       2 calls)
     wfcinit:wfcr :     39.78s CPU     39.97s WALL (       2 calls)
     potinit      :     11.95s CPU     12.40s WALL (       1 calls)
     hinit0       :      8.77s CPU      8.80s WALL (       1 calls)

     Called by electrons:
     c_bands      :   1422.22s CPU   1429.26s WALL (      24 calls)
     sum_band     :    497.44s CPU    512.01s WALL (      24 calls)
     v_of_rho     :    180.61s CPU    188.75s WALL (      25 calls)
     v_h          :      1.73s CPU      1.81s WALL (      25 calls)
     v_xc         :    178.87s CPU    186.94s WALL (      25 calls)
     newd         :    189.52s CPU    202.60s WALL (      25 calls)
     mix_rho      :     10.09s CPU     10.26s WALL (      24 calls)

     Called by c_bands:
     init_us_2    :      4.25s CPU      4.29s WALL (      98 calls)
     cegterg      :   1410.46s CPU   1417.44s WALL (      48 calls)

     Called by sum_band:
     sum_band:bec :      0.04s CPU      0.04s WALL (      48 calls)
     addusdens    :    312.60s CPU    326.31s WALL (      24 calls)

     Called by *egterg:
     h_psi        :    743.96s CPU    748.65s WALL (     174 calls)
     s_psi        :    249.20s CPU    249.32s WALL (     174 calls)
     g_psi        :      0.80s CPU      0.80s WALL (     124 calls)
     cdiaghg      :     10.36s CPU     10.37s WALL (     172 calls)
     cegterg:over :    178.06s CPU    178.09s WALL (     124 calls)
     cegterg:upda :    101.87s CPU    102.53s WALL (     124 calls)
     cegterg:last :     79.22s CPU     79.25s WALL (      48 calls)

     Called by h_psi:
     h_psi:pot    :    743.08s CPU    746.83s WALL (     174 calls)
     h_psi:calbec :    247.83s CPU    247.94s WALL (     174 calls)
     vloc_psi     :    246.32s CPU    249.88s WALL (     174 calls)
     add_vuspsi   :    248.93s CPU    249.00s WALL (     174 calls)

     General routines
     calbec       :    358.05s CPU    358.19s WALL (     222 calls)
     fft          :    110.15s CPU    113.35s WALL (    1869 calls)
     ffts         :      1.80s CPU      1.86s WALL (      98 calls)
     fftw         :    264.41s CPU    268.27s WALL (   33266 calls)
     interpolate  :      4.14s CPU      4.22s WALL (      50 calls)

     Parallel routines
     fft_scatt_xy :     66.24s CPU     66.94s WALL (   35233 calls)
     fft_scatt_yz :    133.29s CPU    138.64s WALL (   35233 calls)

     PWSCF        :  39m22.14s CPU  40m 5.97s WALL


   This run was terminated on:  19:48:21   7Sep2022            

=------------------------------------------------------------------------------=
   JOB DONE.
=------------------------------------------------------------------------------=
