
     Program PWSCF v.6.4.1 starts on  7Sep2022 at 20:30:33 

     This program is part of the open-source Quantum ESPRESSO suite
     for quantum simulation of materials; please cite
         "P. Giannozzi et al., J. Phys.:Condens. Matter 21 395502 (2009);
         "P. Giannozzi et al., J. Phys.:Condens. Matter 29 465901 (2017);
          URL http://www.quantum-espresso.org", 
     in publications or presentations arising from this work. More details at
     http://www.quantum-espresso.org/quote

     Parallel version (MPI), running on     6 processors

     MPI processes distributed on     1 nodes
     R & G space division:  proc/nbgrp/npool/nimage =       6
     Reading input from distance-2.2.in

     Current dimensions of program PWSCF are:
     Max number of different atomic species (ntypx) = 10
     Max number of k-points (npk) =  40000
     Max angular momentum in pseudopotentials (lmaxx) =  3

     IMPORTANT: XC functional enforced from input :
     Exchange-correlation      = RVV10 ( 1  4 13  4 3 0)
     Any further DFT definition will be discarded
     Please, verify this is what you really want

               file H.pbe-rrkjus.UPF: wavefunction(s)  1S renormalized
               file Cu.pbe-dn-rrkjus_psl.1.0.0.UPF: wavefunction(s)  3D renormalized

     Subspace diagonalization in iterative solution of the eigenvalue problem:
     a serial algorithm will be used


     Parallelization info
     --------------------
     sticks:   dense  smooth     PW     G-vecs:    dense   smooth      PW
     Min        3051    1746    432               270999   117096   14629
     Max        3053    1747    437               271001   117099   14630
     Sum       18313   10477   2611              1626001   702581   87777



     bravais-lattice index     =            4
     lattice parameter (alat)  =      23.2937  a.u.
     unit-cell volume          =    8879.8548 (a.u.)^3
     number of atoms/cell      =           52
     number of atomic types    =            3
     number of electrons       =       209.00
     number of Kohn-Sham states=          126
     kinetic-energy cutoff     =      70.0000  Ry
     charge density cutoff     =     490.0000  Ry
     convergence threshold     =      1.0E-06
     mixing beta               =       0.7000
     number of iterations used =            8  plain     mixing
     Exchange-correlation      = RVV10 ( 1  4 13  4 3 0)

     celldm(1)=  23.293684  celldm(2)=   0.000000  celldm(3)=   0.811261
     celldm(4)=   0.000000  celldm(5)=   0.000000  celldm(6)=   0.000000

     crystal axes: (cart. coord. in units of alat)
               a(1) = (   1.000000   0.000000   0.000000 )  
               a(2) = (  -0.500000   0.866025   0.000000 )  
               a(3) = (   0.000000   0.000000   0.811261 )  

     reciprocal axes: (cart. coord. in units 2 pi/alat)
               b(1) = (  1.000000  0.577350 -0.000000 )  
               b(2) = (  0.000000  1.154701  0.000000 )  
               b(3) = (  0.000000 -0.000000  1.232649 )  


     PseudoPot. # 1 for H  read from file:
     /home/cristian/Escritorio/Proyecto_Grafeno/pseudopotenciales/H.pbe-rrkjus.UPF
     MD5 check sum: 7cc9d459525c9a0585f487a71c3c9563
     Pseudo is Ultrasoft, Zval =  1.0
     Generated by new atomic code, or converted to UPF format
     Using radial grid of 1061 points,  2 beta functions with: 
                l(1) =   0
                l(2) =   0
     Q(r) pseudized with 0 coefficients 


     PseudoPot. # 2 for C  read from file:
     /home/cristian/Escritorio/Proyecto_Grafeno/pseudopotenciales/C.pbe-n-rrkjus_psl.1.0.0.UPF
     MD5 check sum: 1fdd950c42eb37d8afe3dd2f8d12311e
     Pseudo is Ultrasoft + core correction, Zval =  4.0
     Generated using "atomic" code by A. Dal Corso v.6.3MaX
     Using radial grid of 1073 points,  4 beta functions with: 
                l(1) =   0
                l(2) =   0
                l(3) =   1
                l(4) =   1
     Q(r) pseudized with 0 coefficients 


     PseudoPot. # 3 for Cu read from file:
     /home/cristian/Escritorio/Proyecto_Grafeno/pseudopotenciales/Cu.pbe-dn-rrkjus_psl.1.0.0.UPF
     MD5 check sum: ba3d6c84e19846e79d48cdc68ff7152b
     Pseudo is Ultrasoft + core correction, Zval = 11.0
     Generated using "atomic" code by A. Dal Corso v.6.3
     Using radial grid of 1199 points,  6 beta functions with: 
                l(1) =   0
                l(2) =   0
                l(3) =   1
                l(4) =   1
                l(5) =   2
                l(6) =   2
     Q(r) pseudized with 0 coefficients 


     vdW kernel table read from file rVV10_kernel_table
     MD5 check sum: b8e2538accc0c0b3206b45ba4daaba6c

     atomic species   valence    mass     pseudopotential
        H              1.00     1.00794     H ( 1.00)
        C              4.00    12.01070     C ( 1.00)
        Cu            11.00    63.54600     Cu( 1.00)

     Starting magnetic structure 
     atomic species   magnetization
        H            0.500
        C            0.300
        Cu           0.800

     No symmetry found


                                    s                        frac. trans.

      isym =  1     identity                                     

 cryst.   s( 1) = (     1          0          0      )
                  (     0          1          0      )
                  (     0          0          1      )

 cart.    s( 1) = (  1.0000000  0.0000000  0.0000000 )
                  (  0.0000000  1.0000000  0.0000000 )
                  (  0.0000000  0.0000000  1.0000000 )


     point group C_1 (1)    
     there are  1 classes
     the character table:

       E    
A      1.00

     the symmetry operations in each class and the name of the first element:

     E        1
          identity                                               

   Cartesian axes

     site n.     atom                  positions (alat units)
         1           H   tau(   1) = (   0.2694937   0.4041452   0.1784775  )
         2           H   tau(   2) = (   0.3305063   0.4041452   0.1784775  )
         3           C   tau(   3) = (   0.0000000   0.0000000   0.0000000  )
         4           C   tau(   4) = (   0.0000000   0.1154701   0.0000000  )
         5           C   tau(   5) = (  -0.1000000   0.1732051   0.0000000  )
         6           C   tau(   6) = (  -0.1000000   0.2886751   0.0000000  )
         7           C   tau(   7) = (  -0.2000000   0.3464102   0.0000000  )
         8           C   tau(   8) = (  -0.2000000   0.4618802   0.0000000  )
         9           C   tau(   9) = (  -0.3000000   0.5196152   0.0000000  )
        10           C   tau(  10) = (  -0.3000000   0.6350853   0.0000000  )
        11           C   tau(  11) = (  -0.4000000   0.6928203   0.0000000  )
        12           C   tau(  12) = (  -0.4000000   0.8082904   0.0000000  )
        13           C   tau(  13) = (   0.2000000   0.0000000   0.0000000  )
        14           C   tau(  14) = (   0.2000000   0.1154701   0.0000000  )
        15           C   tau(  15) = (   0.1000000   0.1732051   0.0000000  )
        16           C   tau(  16) = (   0.1000000   0.2886751   0.0000000  )
        17           C   tau(  17) = (   0.0000000   0.3464102   0.0000000  )
        18           C   tau(  18) = (   0.0000000   0.4618802   0.0000000  )
        19           C   tau(  19) = (  -0.1000000   0.5196152   0.0000000  )
        20           C   tau(  20) = (  -0.1000000   0.6350853   0.0000000  )
        21           C   tau(  21) = (  -0.2000000   0.6928203   0.0000000  )
        22           C   tau(  22) = (  -0.2000000   0.8082904   0.0000000  )
        23           C   tau(  23) = (   0.4000000   0.0000000   0.0000000  )
        24           C   tau(  24) = (   0.4000000   0.1154701   0.0000000  )
        25           C   tau(  25) = (   0.3000000   0.1732051   0.0000000  )
        26           C   tau(  26) = (   0.3000000   0.2886751   0.0000000  )
        27           C   tau(  27) = (   0.2000000   0.3464102   0.0000000  )
        28           Cu  tau(  28) = (   0.2000000   0.4618802   0.0000000  )
        29           C   tau(  29) = (   0.1000000   0.5196152   0.0000000  )
        30           C   tau(  30) = (   0.1000000   0.6350853   0.0000000  )
        31           C   tau(  31) = (   0.0000000   0.6928203   0.0000000  )
        32           C   tau(  32) = (   0.0000000   0.8082904   0.0000000  )
        33           C   tau(  33) = (   0.6000000   0.0000000   0.0000000  )
        34           C   tau(  34) = (   0.6000000   0.1154701   0.0000000  )
        35           C   tau(  35) = (   0.5000000   0.1732051   0.0000000  )
        36           C   tau(  36) = (   0.5000000   0.2886751   0.0000000  )
        37           C   tau(  37) = (   0.4000000   0.3464102   0.0000000  )
        38           C   tau(  38) = (   0.4000000   0.4618802   0.0000000  )
        39           C   tau(  39) = (   0.3000000   0.5196152   0.0000000  )
        40           C   tau(  40) = (   0.3000000   0.6350853   0.0000000  )
        41           C   tau(  41) = (   0.2000000   0.6928203   0.0000000  )
        42           C   tau(  42) = (   0.2000000   0.8082904   0.0000000  )
        43           C   tau(  43) = (   0.8000000   0.0000000   0.0000000  )
        44           C   tau(  44) = (   0.8000000   0.1154701   0.0000000  )
        45           C   tau(  45) = (   0.7000000   0.1732051   0.0000000  )
        46           C   tau(  46) = (   0.7000000   0.2886751   0.0000000  )
        47           C   tau(  47) = (   0.6000000   0.3464102   0.0000000  )
        48           C   tau(  48) = (   0.6000000   0.4618802   0.0000000  )
        49           C   tau(  49) = (   0.5000000   0.5196152   0.0000000  )
        50           C   tau(  50) = (   0.5000000   0.6350853   0.0000000  )
        51           C   tau(  51) = (   0.4000000   0.6928203   0.0000000  )
        52           C   tau(  52) = (   0.4000000   0.8082904   0.0000000  )

   Crystallographic axes

     site n.     atom                  positions (cryst. coord.)
         1           H   tau(   1) = (  0.5028270  0.4666667  0.2200000  )
         2           H   tau(   2) = (  0.5638397  0.4666667  0.2200000  )
         3           C   tau(   3) = (  0.0000000  0.0000000  0.0000000  )
         4           C   tau(   4) = (  0.0666667  0.1333333  0.0000000  )
         5           C   tau(   5) = (  0.0000000  0.2000000  0.0000000  )
         6           C   tau(   6) = (  0.0666667  0.3333333  0.0000000  )
         7           C   tau(   7) = (  0.0000000  0.4000000  0.0000000  )
         8           C   tau(   8) = (  0.0666667  0.5333333  0.0000000  )
         9           C   tau(   9) = (  0.0000000  0.6000000  0.0000000  )
        10           C   tau(  10) = (  0.0666667  0.7333333  0.0000000  )
        11           C   tau(  11) = (  0.0000000  0.8000000  0.0000000  )
        12           C   tau(  12) = (  0.0666667  0.9333333  0.0000000  )
        13           C   tau(  13) = (  0.2000000  0.0000000  0.0000000  )
        14           C   tau(  14) = (  0.2666667  0.1333333  0.0000000  )
        15           C   tau(  15) = (  0.2000000  0.2000000  0.0000000  )
        16           C   tau(  16) = (  0.2666667  0.3333333  0.0000000  )
        17           C   tau(  17) = (  0.2000000  0.4000000  0.0000000  )
        18           C   tau(  18) = (  0.2666667  0.5333333  0.0000000  )
        19           C   tau(  19) = (  0.2000000  0.6000000  0.0000000  )
        20           C   tau(  20) = (  0.2666667  0.7333333  0.0000000  )
        21           C   tau(  21) = (  0.2000000  0.8000000  0.0000000  )
        22           C   tau(  22) = (  0.2666667  0.9333333  0.0000000  )
        23           C   tau(  23) = (  0.4000000  0.0000000  0.0000000  )
        24           C   tau(  24) = (  0.4666667  0.1333333  0.0000000  )
        25           C   tau(  25) = (  0.4000000  0.2000000  0.0000000  )
        26           C   tau(  26) = (  0.4666667  0.3333333  0.0000000  )
        27           C   tau(  27) = (  0.4000000  0.4000000  0.0000000  )
        28           Cu  tau(  28) = (  0.4666667  0.5333333  0.0000000  )
        29           C   tau(  29) = (  0.4000000  0.6000000  0.0000000  )
        30           C   tau(  30) = (  0.4666667  0.7333333  0.0000000  )
        31           C   tau(  31) = (  0.4000000  0.8000000  0.0000000  )
        32           C   tau(  32) = (  0.4666667  0.9333333  0.0000000  )
        33           C   tau(  33) = (  0.6000000  0.0000000  0.0000000  )
        34           C   tau(  34) = (  0.6666667  0.1333333  0.0000000  )
        35           C   tau(  35) = (  0.6000000  0.2000000  0.0000000  )
        36           C   tau(  36) = (  0.6666667  0.3333333  0.0000000  )
        37           C   tau(  37) = (  0.6000000  0.4000000  0.0000000  )
        38           C   tau(  38) = (  0.6666667  0.5333333  0.0000000  )
        39           C   tau(  39) = (  0.6000000  0.6000000  0.0000000  )
        40           C   tau(  40) = (  0.6666667  0.7333333  0.0000000  )
        41           C   tau(  41) = (  0.6000000  0.8000000  0.0000000  )
        42           C   tau(  42) = (  0.6666667  0.9333333  0.0000000  )
        43           C   tau(  43) = (  0.8000000  0.0000000  0.0000000  )
        44           C   tau(  44) = (  0.8666667  0.1333333  0.0000000  )
        45           C   tau(  45) = (  0.8000000  0.2000000  0.0000000  )
        46           C   tau(  46) = (  0.8666667  0.3333333  0.0000000  )
        47           C   tau(  47) = (  0.8000000  0.4000000  0.0000000  )
        48           C   tau(  48) = (  0.8666667  0.5333333  0.0000000  )
        49           C   tau(  49) = (  0.8000000  0.6000000  0.0000000  )
        50           C   tau(  50) = (  0.8666667  0.7333333  0.0000000  )
        51           C   tau(  51) = (  0.8000000  0.8000000  0.0000000  )
        52           C   tau(  52) = (  0.8666667  0.9333333  0.0000000  )

     number of k points=     1  Marzari-Vanderbilt smearing, width (Ry)=  0.0010
                       cart. coord. in units 2pi/alat
        k(    1) = (   0.0000000   0.0000000   0.0000000), wk =   1.0000000

                       cryst. coord.
        k(    1) = (   0.0000000   0.0000000   0.0000000), wk =   1.0000000

     Dense  grid:  1626001 G-vectors     FFT dimensions: ( 180, 180, 135)

     Smooth grid:   702581 G-vectors     FFT dimensions: ( 125, 125, 108)

     Dynamical RAM for                 wfc:      28.14 MB

     Dynamical RAM for     wfc (w. buffer):      84.42 MB

     Dynamical RAM for           str. fact:      12.41 MB

     Dynamical RAM for           local pot:       0.00 MB

     Dynamical RAM for          nlocal pot:      92.46 MB

     Dynamical RAM for                qrad:      19.73 MB

     Dynamical RAM for          rho,v,vnew:      58.92 MB

     Dynamical RAM for               rhoin:      19.64 MB

     Dynamical RAM for            rho*nmix:     132.32 MB

     Dynamical RAM for           G-vectors:      16.40 MB

     Dynamical RAM for          h,s,v(r/c):      11.63 MB

     Dynamical RAM for          <psi|beta>:       0.80 MB

     Dynamical RAM for                 psi:     112.56 MB

     Dynamical RAM for                hpsi:     112.56 MB

     Dynamical RAM for                spsi:     112.56 MB

     Dynamical RAM for      wfcinit/wfcrot:      93.45 MB

     Dynamical RAM for           addusdens:     975.89 MB

     Estimated static dynamical RAM per process >     486.96 MB

     Estimated max dynamical RAM per process >       1.43 GB

     Estimated total dynamical RAM >       8.57 GB
     Generating pointlists ...
     new r_m :   0.0252 (alat units)  0.5862 (a.u.) for type    1
     new r_m :   0.0476 (alat units)  1.1095 (a.u.) for type    2
     new r_m :   0.0476 (alat units)  1.1095 (a.u.) for type    3

     Check: negative core charge=   -0.000002

     Initial potential from superposition of free atoms

     starting charge  208.80532, renormalised to  209.00000

     negative rho (up, down):  7.277E-05 1.301E-02


---------------------------------------------------------------------------------
Carrying out rVV10 run using the following parameters:
Nqs =      20    Nr_points =    1024   r_max =   100.000
b_value =  6.30000    beta =  0.00901
     q_mesh =  0.00010000  0.00030000  0.00058939  0.00100810
               0.00161396  0.00249058  0.00375900  0.00559430
               0.00824984  0.01209221  0.01765183  0.02569619
               0.03733578  0.05417739  0.07854596  0.11380545
               0.16482331  0.23864234  0.34545298  0.50000000

Gradients computed in Reciprocal space

---------------------------------------------------------------------------------


     Starting wfcs are  207 randomized atomic wfcs

     total cpu time spent up to now is       74.1 secs

     Self-consistent Calculation

     iteration #  1     ecut=    70.00 Ry     beta= 0.70
     Davidson diagonalization with overlap
     ethr =  1.00E-02,  avg # of iterations =  2.0

     negative rho (up, down):  1.783E-04 1.305E-02

     total cpu time spent up to now is      213.5 secs

     total energy              =    -729.48530614 Ry
     Harris-Foulkes estimate   =    -734.87879175 Ry
     estimated scf accuracy    <      12.26839822 Ry

     total magnetization       =     4.92 Bohr mag/cell
     absolute magnetization    =     5.68 Bohr mag/cell

     iteration #  2     ecut=    70.00 Ry     beta= 0.70
     Davidson diagonalization with overlap
     ethr =  5.87E-03,  avg # of iterations =  4.5

     negative rho (up, down):  2.097E-04 1.163E-02

     total cpu time spent up to now is      345.6 secs

     total energy              =    -730.37534787 Ry
     Harris-Foulkes estimate   =    -740.64471108 Ry
     estimated scf accuracy    <      24.04906220 Ry

     total magnetization       =     3.00 Bohr mag/cell
     absolute magnetization    =     3.19 Bohr mag/cell

     iteration #  3     ecut=    70.00 Ry     beta= 0.70
     Davidson diagonalization with overlap
     ethr =  5.87E-03,  avg # of iterations =  4.0

     negative rho (up, down):  2.543E-04 8.944E-03

     total cpu time spent up to now is      461.8 secs

     total energy              =    -732.72917122 Ry
     Harris-Foulkes estimate   =    -735.59976561 Ry
     estimated scf accuracy    <       7.58350843 Ry

     total magnetization       =     1.00 Bohr mag/cell
     absolute magnetization    =     1.66 Bohr mag/cell

     iteration #  4     ecut=    70.00 Ry     beta= 0.70
     Davidson diagonalization with overlap
     ethr =  3.63E-03,  avg # of iterations =  3.5

     negative rho (up, down):  3.016E-04 7.911E-03

     total cpu time spent up to now is      574.9 secs

     total energy              =    -733.68446803 Ry
     Harris-Foulkes estimate   =    -735.29847381 Ry
     estimated scf accuracy    <       6.79250854 Ry

     total magnetization       =     3.00 Bohr mag/cell
     absolute magnetization    =     3.12 Bohr mag/cell

     iteration #  5     ecut=    70.00 Ry     beta= 0.70
     Davidson diagonalization with overlap
     ethr =  3.25E-03,  avg # of iterations =  3.0

     negative rho (up, down):  3.414E-04 1.027E-02

     total cpu time spent up to now is      676.2 secs

     total energy              =    -734.33427575 Ry
     Harris-Foulkes estimate   =    -735.00446399 Ry
     estimated scf accuracy    <       2.80663688 Ry

     total magnetization       =     1.00 Bohr mag/cell
     absolute magnetization    =     1.35 Bohr mag/cell

     iteration #  6     ecut=    70.00 Ry     beta= 0.70
     Davidson diagonalization with overlap
     ethr =  1.34E-03,  avg # of iterations =  2.5

     negative rho (up, down):  4.215E-04 1.412E-02

     total cpu time spent up to now is      777.9 secs

     total energy              =    -734.66365061 Ry
     Harris-Foulkes estimate   =    -734.77851721 Ry
     estimated scf accuracy    <       0.33593754 Ry

     total magnetization       =     1.00 Bohr mag/cell
     absolute magnetization    =     1.33 Bohr mag/cell

     iteration #  7     ecut=    70.00 Ry     beta= 0.70
     Davidson diagonalization with overlap
     ethr =  1.61E-04,  avg # of iterations = 10.0

     negative rho (up, down):  5.440E-04 9.779E-03

     total cpu time spent up to now is      902.8 secs

     total energy              =    -734.71889653 Ry
     Harris-Foulkes estimate   =    -734.77030385 Ry
     estimated scf accuracy    <       0.18745241 Ry

     total magnetization       =     1.00 Bohr mag/cell
     absolute magnetization    =     1.24 Bohr mag/cell

     iteration #  8     ecut=    70.00 Ry     beta= 0.70
     Davidson diagonalization with overlap
     ethr =  8.97E-05,  avg # of iterations =  3.0

     negative rho (up, down):  6.314E-04 3.729E-03

     total cpu time spent up to now is     1006.4 secs

     total energy              =    -734.73558770 Ry
     Harris-Foulkes estimate   =    -734.75186135 Ry
     estimated scf accuracy    <       0.06557764 Ry

     total magnetization       =     1.00 Bohr mag/cell
     absolute magnetization    =     1.19 Bohr mag/cell

     iteration #  9     ecut=    70.00 Ry     beta= 0.70
     Davidson diagonalization with overlap
     ethr =  3.14E-05,  avg # of iterations =  2.0

     negative rho (up, down):  6.691E-04 2.411E-03

     total cpu time spent up to now is     1110.2 secs

     total energy              =    -734.74233932 Ry
     Harris-Foulkes estimate   =    -734.74341887 Ry
     estimated scf accuracy    <       0.01753656 Ry

     total magnetization       =     1.00 Bohr mag/cell
     absolute magnetization    =     1.15 Bohr mag/cell

     iteration # 10     ecut=    70.00 Ry     beta= 0.70
     Davidson diagonalization with overlap
     ethr =  8.39E-06,  avg # of iterations = 10.0

     negative rho (up, down):  6.743E-04 3.213E-03

     total cpu time spent up to now is     1217.2 secs

     total energy              =    -734.74210026 Ry
     Harris-Foulkes estimate   =    -734.74434442 Ry
     estimated scf accuracy    <       0.02419371 Ry

     total magnetization       =     1.00 Bohr mag/cell
     absolute magnetization    =     1.14 Bohr mag/cell

     iteration # 11     ecut=    70.00 Ry     beta= 0.70
     Davidson diagonalization with overlap
     ethr =  8.39E-06,  avg # of iterations =  1.0

     negative rho (up, down):  6.945E-04 3.388E-03

     total cpu time spent up to now is     1317.2 secs

     total energy              =    -734.74320409 Ry
     Harris-Foulkes estimate   =    -734.74427462 Ry
     estimated scf accuracy    <       0.01999083 Ry

     total magnetization       =     1.00 Bohr mag/cell
     absolute magnetization    =     1.13 Bohr mag/cell

     iteration # 12     ecut=    70.00 Ry     beta= 0.70
     Davidson diagonalization with overlap
     ethr =  8.39E-06,  avg # of iterations =  1.0

     negative rho (up, down):  6.943E-04 2.853E-03

     total cpu time spent up to now is     1416.3 secs

     total energy              =    -734.74362407 Ry
     Harris-Foulkes estimate   =    -734.74376517 Ry
     estimated scf accuracy    <       0.00268598 Ry

     total magnetization       =     1.00 Bohr mag/cell
     absolute magnetization    =     1.10 Bohr mag/cell

     iteration # 13     ecut=    70.00 Ry     beta= 0.70
     Davidson diagonalization with overlap
     ethr =  1.29E-06,  avg # of iterations =  3.0

     negative rho (up, down):  6.920E-04 2.458E-03

     total cpu time spent up to now is     1517.4 secs

     total energy              =    -734.74367176 Ry
     Harris-Foulkes estimate   =    -734.74373910 Ry
     estimated scf accuracy    <       0.00153032 Ry

     total magnetization       =     1.00 Bohr mag/cell
     absolute magnetization    =     1.10 Bohr mag/cell

     iteration # 14     ecut=    70.00 Ry     beta= 0.70
     Davidson diagonalization with overlap
     ethr =  7.32E-07,  avg # of iterations =  2.0

     negative rho (up, down):  6.820E-04 1.837E-03

     total cpu time spent up to now is     1617.4 secs

     total energy              =    -734.74371701 Ry
     Harris-Foulkes estimate   =    -734.74372653 Ry
     estimated scf accuracy    <       0.00006689 Ry

     total magnetization       =     1.00 Bohr mag/cell
     absolute magnetization    =     1.09 Bohr mag/cell

     iteration # 15     ecut=    70.00 Ry     beta= 0.70
     Davidson diagonalization with overlap
     ethr =  3.20E-08,  avg # of iterations =  3.0

     negative rho (up, down):  6.808E-04 1.793E-03

     total cpu time spent up to now is     1741.6 secs

     total energy              =    -734.74373173 Ry
     Harris-Foulkes estimate   =    -734.74374308 Ry
     estimated scf accuracy    <       0.00007630 Ry

     total magnetization       =     1.00 Bohr mag/cell
     absolute magnetization    =     1.08 Bohr mag/cell

     iteration # 16     ecut=    70.00 Ry     beta= 0.70
     Davidson diagonalization with overlap
     ethr =  3.20E-08,  avg # of iterations =  2.0

     negative rho (up, down):  6.795E-04 1.804E-03

     total cpu time spent up to now is     1842.1 secs

     total energy              =    -734.74374093 Ry
     Harris-Foulkes estimate   =    -734.74373881 Ry
     estimated scf accuracy    <       0.00008100 Ry

     total magnetization       =     1.00 Bohr mag/cell
     absolute magnetization    =     1.08 Bohr mag/cell

     iteration # 17     ecut=    70.00 Ry     beta= 0.70
     Davidson diagonalization with overlap
     ethr =  3.20E-08,  avg # of iterations =  1.0

     negative rho (up, down):  6.785E-04 1.818E-03

     total cpu time spent up to now is     1941.9 secs

     total energy              =    -734.74374267 Ry
     Harris-Foulkes estimate   =    -734.74374300 Ry
     estimated scf accuracy    <       0.00016316 Ry

     total magnetization       =     1.00 Bohr mag/cell
     absolute magnetization    =     1.07 Bohr mag/cell

     iteration # 18     ecut=    70.00 Ry     beta= 0.70
     Davidson diagonalization with overlap
     ethr =  3.20E-08,  avg # of iterations =  1.0

     negative rho (up, down):  6.781E-04 1.821E-03

     total cpu time spent up to now is     2041.9 secs

     total energy              =    -734.74374408 Ry
     Harris-Foulkes estimate   =    -734.74374344 Ry
     estimated scf accuracy    <       0.00010006 Ry

     total magnetization       =     1.00 Bohr mag/cell
     absolute magnetization    =     1.07 Bohr mag/cell

     iteration # 19     ecut=    70.00 Ry     beta= 0.70
     Davidson diagonalization with overlap
     ethr =  3.20E-08,  avg # of iterations =  1.0

     negative rho (up, down):  6.784E-04 1.825E-03

     total cpu time spent up to now is     2142.4 secs

     total energy              =    -734.74374234 Ry
     Harris-Foulkes estimate   =    -734.74374508 Ry
     estimated scf accuracy    <       0.00014495 Ry

     total magnetization       =     1.00 Bohr mag/cell
     absolute magnetization    =     1.07 Bohr mag/cell

     iteration # 20     ecut=    70.00 Ry     beta= 0.70
     Davidson diagonalization with overlap
     ethr =  3.20E-08,  avg # of iterations =  1.0

     negative rho (up, down):  6.776E-04 1.809E-03

     total cpu time spent up to now is     2243.2 secs

     total energy              =    -734.74374081 Ry
     Harris-Foulkes estimate   =    -734.74374398 Ry
     estimated scf accuracy    <       0.00003061 Ry

     total magnetization       =     1.00 Bohr mag/cell
     absolute magnetization    =     1.07 Bohr mag/cell

     iteration # 21     ecut=    70.00 Ry     beta= 0.70
     Davidson diagonalization with overlap
     ethr =  1.46E-08,  avg # of iterations =  2.5

     negative rho (up, down):  6.777E-04 1.811E-03

     total cpu time spent up to now is     2350.1 secs

     total energy              =    -734.74374419 Ry
     Harris-Foulkes estimate   =    -734.74374552 Ry
     estimated scf accuracy    <       0.00000454 Ry

     total magnetization       =     1.00 Bohr mag/cell
     absolute magnetization    =     1.07 Bohr mag/cell

     iteration # 22     ecut=    70.00 Ry     beta= 0.70
     Davidson diagonalization with overlap
     ethr =  2.17E-09,  avg # of iterations =  2.0

     negative rho (up, down):  6.774E-04 1.817E-03

     total cpu time spent up to now is     2453.5 secs

     total energy              =    -734.74374464 Ry
     Harris-Foulkes estimate   =    -734.74374493 Ry
     estimated scf accuracy    <       0.00000830 Ry

     total magnetization       =     1.00 Bohr mag/cell
     absolute magnetization    =     1.07 Bohr mag/cell

     iteration # 23     ecut=    70.00 Ry     beta= 0.70
     Davidson diagonalization with overlap
     ethr =  2.17E-09,  avg # of iterations =  2.0

     negative rho (up, down):  6.774E-04 1.816E-03

     total cpu time spent up to now is     2555.6 secs

     total energy              =    -734.74374410 Ry
     Harris-Foulkes estimate   =    -734.74374498 Ry
     estimated scf accuracy    <       0.00000262 Ry

     total magnetization       =     1.00 Bohr mag/cell
     absolute magnetization    =     1.07 Bohr mag/cell

     iteration # 24     ecut=    70.00 Ry     beta= 0.70
     Davidson diagonalization with overlap
     ethr =  1.26E-09,  avg # of iterations =  3.0

     negative rho (up, down):  6.777E-04 1.806E-03

     Magnetic moment per site:
     atom:    1    charge:    0.2140    magn:    0.0000    constr:    0.0000
     atom:    2    charge:    0.2134    magn:    0.0001    constr:    0.0000
     atom:    3    charge:    1.7159    magn:    0.0020    constr:    0.0000
     atom:    4    charge:    1.7155    magn:    0.0024    constr:    0.0000
     atom:    5    charge:    1.7169    magn:    0.0001    constr:    0.0000
     atom:    6    charge:    1.7147    magn:   -0.0000    constr:    0.0000
     atom:    7    charge:    1.7170    magn:   -0.0001    constr:    0.0000
     atom:    8    charge:    1.7152    magn:    0.0013    constr:    0.0000
     atom:    9    charge:    1.7157    magn:    0.0012    constr:    0.0000
     atom:   10    charge:    1.7169    magn:   -0.0009    constr:    0.0000
     atom:   11    charge:    1.7160    magn:    0.0005    constr:    0.0000
     atom:   12    charge:    1.7170    magn:   -0.0007    constr:    0.0000
     atom:   13    charge:    1.7159    magn:    0.0005    constr:    0.0000
     atom:   14    charge:    1.7169    magn:   -0.0011    constr:    0.0000
     atom:   15    charge:    1.7134    magn:    0.0094    constr:    0.0000
     atom:   16    charge:    1.7109    magn:    0.0150    constr:    0.0000
     atom:   17    charge:    1.7213    magn:    0.0027    constr:    0.0000
     atom:   18    charge:    1.7112    magn:    0.0134    constr:    0.0000
     atom:   19    charge:    1.7126    magn:    0.0050    constr:    0.0000
     atom:   20    charge:    1.7168    magn:   -0.0007    constr:    0.0000
     atom:   21    charge:    1.7160    magn:    0.0003    constr:    0.0000
     atom:   22    charge:    1.7170    magn:   -0.0008    constr:    0.0000
     atom:   23    charge:    1.7157    magn:    0.0015    constr:    0.0000
     atom:   24    charge:    1.7152    magn:    0.0015    constr:    0.0000
     atom:   25    charge:    1.7128    magn:    0.0078    constr:    0.0000
     atom:   26    charge:    1.7103    magn:    0.0088    constr:    0.0000
     atom:   27    charge:    1.8222    magn:    0.0972    constr:    0.0000
     atom:   28    charge:    7.0293    magn:    0.1544    constr:    0.0000
     atom:   29    charge:    1.8125    magn:    0.0559    constr:    0.0000
     atom:   30    charge:    1.7117    magn:    0.0161    constr:    0.0000
     atom:   31    charge:    1.7128    magn:    0.0057    constr:    0.0000
     atom:   32    charge:    1.7153    magn:    0.0017    constr:    0.0000
     atom:   33    charge:    1.7170    magn:   -0.0001    constr:    0.0000
     atom:   34    charge:    1.7153    magn:   -0.0000    constr:    0.0000
     atom:   35    charge:    1.7169    magn:    0.0002    constr:    0.0000
     atom:   36    charge:    1.7147    magn:   -0.0002    constr:    0.0000
     atom:   37    charge:    1.7218    magn:    0.0043    constr:    0.0000
     atom:   38    charge:    1.7105    magn:    0.0083    constr:    0.0000
     atom:   39    charge:    1.8196    magn:    0.0852    constr:    0.0000
     atom:   40    charge:    1.7113    magn:    0.0172    constr:    0.0000
     atom:   41    charge:    1.7212    magn:    0.0021    constr:    0.0000
     atom:   42    charge:    1.7146    magn:    0.0000    constr:    0.0000
     atom:   43    charge:    1.7169    magn:   -0.0000    constr:    0.0000
     atom:   44    charge:    1.7153    magn:    0.0000    constr:    0.0000
     atom:   45    charge:    1.7209    magn:   -0.0007    constr:    0.0000
     atom:   46    charge:    1.7153    magn:   -0.0001    constr:    0.0000
     atom:   47    charge:    1.7169    magn:    0.0001    constr:    0.0000
     atom:   48    charge:    1.7152    magn:    0.0012    constr:    0.0000
     atom:   49    charge:    1.7126    magn:    0.0065    constr:    0.0000
     atom:   50    charge:    1.7169    magn:   -0.0010    constr:    0.0000
     atom:   51    charge:    1.7133    magn:    0.0088    constr:    0.0000
     atom:   52    charge:    1.7155    magn:    0.0025    constr:    0.0000

     total cpu time spent up to now is     2677.1 secs

     End of self-consistent calculation

 ------ SPIN UP ------------


          k = 0.0000 0.0000 0.0000 ( 87777 PWs)   bands (ev):

   -19.8527 -19.0199 -18.9978 -18.9181 -18.9135 -18.8543 -18.7783 -17.1807
   -17.1776 -17.1421 -17.1077 -17.0937 -16.8223 -16.3422 -16.3347 -16.1997
   -16.1910 -16.1730 -15.7808 -14.4385 -14.4288 -14.1396 -14.0472 -14.0441
   -13.5905 -13.1782 -13.1774 -13.0911 -12.9551 -12.9449 -12.6423 -12.3264
   -12.3234 -11.7269 -11.6224 -11.6186 -11.1965 -10.9492 -10.9411  -9.5328
    -9.3768  -9.3737  -9.2545  -9.2458  -9.2450  -9.2360  -9.1896  -9.1035
    -9.0730  -9.0705  -8.9701  -8.7312  -8.7253  -8.0786  -7.9067  -7.8595
    -7.6779  -7.6737  -7.5502  -7.5439  -7.3192  -6.9286  -6.8562  -6.8461
    -6.8264  -6.7933  -6.7377  -6.7171  -6.6315  -6.6256  -6.5873  -6.5814
    -6.5761  -6.5341  -6.4132  -6.4039  -6.0612  -5.6246  -5.6233  -5.0387
    -4.9684  -4.9535  -4.8968  -4.8959  -4.7739  -4.7374  -4.7029  -4.5505
    -4.5324  -4.3939  -3.8699  -3.8448  -3.8314  -3.8275  -3.7913  -3.6523
    -3.6256  -3.3768  -1.8978  -1.8400  -1.8367  -1.7542  -1.7461  -1.2551
    -0.8439  -0.8384   0.8945   0.9337   0.9375   1.0826   1.0840   1.4805
     2.4867   2.7793   2.7846   2.8257   2.9192   2.9220   3.3655   3.5199
     3.6423   3.7226   3.7274   3.7459   3.9337   4.2176

     occupation numbers 
     1.0000   1.0000   1.0000   1.0000   1.0000   1.0000   1.0000   1.0000
     1.0000   1.0000   1.0000   1.0000   1.0000   1.0000   1.0000   1.0000
     1.0000   1.0000   1.0000   1.0000   1.0000   1.0000   1.0000   1.0000
     1.0000   1.0000   1.0000   1.0000   1.0000   1.0000   1.0000   1.0000
     1.0000   1.0000   1.0000   1.0000   1.0000   1.0000   1.0000   1.0000
     1.0000   1.0000   1.0000   1.0000   1.0000   1.0000   1.0000   1.0000
     1.0000   1.0000   1.0000   1.0000   1.0000   1.0000   1.0000   1.0000
     1.0000   1.0000   1.0000   1.0000   1.0000   1.0000   1.0000   1.0000
     1.0000   1.0000   1.0000   1.0000   1.0000   1.0000   1.0000   1.0000
     1.0000   1.0000   1.0000   1.0000   1.0000   1.0000   1.0000   1.0000
     1.0000   1.0000   1.0000   1.0000   1.0000   1.0000   1.0000   1.0000
     1.0000   1.0000   1.0000   1.0000   1.0000   1.0000   1.0000   1.0000
     1.0000   1.0000   1.0000   1.0000   1.0000   1.0000   1.0000   1.0000
     0.6475   0.3525   0.0000   0.0000   0.0000   0.0000   0.0000   0.0000
     0.0000   0.0000   0.0000   0.0000   0.0000   0.0000   0.0000   0.0000
     0.0000   0.0000   0.0000   0.0000   0.0000   0.0000

 ------ SPIN DOWN ----------


          k = 0.0000 0.0000 0.0000 ( 87777 PWs)   bands (ev):

   -19.8278 -18.9907 -18.9630 -18.9113 -18.9062 -18.8515 -18.7033 -17.1417
   -17.1399 -17.1257 -17.0899 -17.0670 -16.7890 -16.3062 -16.2965 -16.1820
   -16.1662 -16.1648 -15.7058 -14.3452 -14.3427 -14.1156 -14.0393 -14.0357
   -13.5482 -13.1531 -13.1518 -13.0781 -12.9234 -12.9035 -12.5784 -12.2198
   -12.2088 -11.7072 -11.5922 -11.5796 -11.0935 -10.8179 -10.8102  -9.4922
    -9.3584  -9.3531  -9.2468  -9.2370  -9.2361  -9.2237  -9.0494  -9.0135
    -9.0097  -8.9166  -8.8440  -8.6941  -8.6788  -8.0606  -7.8825  -7.8381
    -7.6282  -7.6260  -7.5352  -7.5243  -7.2981  -6.8840  -6.8552  -6.8413
    -6.7943  -6.7857  -6.7203  -6.7029  -6.6093  -6.6041  -6.5807  -6.5764
    -6.5719  -6.5277  -6.3719  -6.3630  -6.0392  -5.6001  -5.5927  -5.0197
    -4.9584  -4.8770  -4.8763  -4.7883  -4.7689  -4.7361  -4.6744  -4.5401
    -4.5202  -4.3728  -3.8658  -3.8386  -3.8056  -3.8033  -3.7906  -3.6334
    -3.6097  -3.3345  -1.8940  -1.8384  -1.8349  -1.7310  -1.7247  -1.2186
    -0.5065  -0.3740   0.8977   0.9373   0.9407   1.1020   1.1102   1.4926
     2.4871   2.7820   2.7861   2.8264   2.9451   2.9507   3.3729   3.5265
     3.6445   3.7221   3.7267   3.7448   3.9396   4.2175

     occupation numbers 
     1.0000   1.0000   1.0000   1.0000   1.0000   1.0000   1.0000   1.0000
     1.0000   1.0000   1.0000   1.0000   1.0000   1.0000   1.0000   1.0000
     1.0000   1.0000   1.0000   1.0000   1.0000   1.0000   1.0000   1.0000
     1.0000   1.0000   1.0000   1.0000   1.0000   1.0000   1.0000   1.0000
     1.0000   1.0000   1.0000   1.0000   1.0000   1.0000   1.0000   1.0000
     1.0000   1.0000   1.0000   1.0000   1.0000   1.0000   1.0000   1.0000
     1.0000   1.0000   1.0000   1.0000   1.0000   1.0000   1.0000   1.0000
     1.0000   1.0000   1.0000   1.0000   1.0000   1.0000   1.0000   1.0000
     1.0000   1.0000   1.0000   1.0000   1.0000   1.0000   1.0000   1.0000
     1.0000   1.0000   1.0000   1.0000   1.0000   1.0000   1.0000   1.0000
     1.0000   1.0000   1.0000   1.0000   1.0000   1.0000   1.0000   1.0000
     1.0000   1.0000   1.0000   1.0000   1.0000   1.0000   1.0000   1.0000
     1.0000   1.0000   1.0000   1.0000   1.0000   1.0000   1.0000   1.0000
     0.0000   0.0000   0.0000   0.0000   0.0000   0.0000   0.0000   0.0000
     0.0000   0.0000   0.0000   0.0000   0.0000   0.0000   0.0000   0.0000
     0.0000   0.0000   0.0000   0.0000   0.0000   0.0000

     the Fermi energy is    -0.8394 ev

!    total energy              =    -734.74374484 Ry
     Harris-Foulkes estimate   =    -734.74374509 Ry
     estimated scf accuracy    <       0.00000055 Ry

     The total energy is the sum of the following terms:

     one-electron contribution =   -2508.92998647 Ry
     hartree contribution      =    1310.15161076 Ry
     xc contribution           =    -275.97572028 Ry
     ewald contribution        =     740.01064953 Ry
     smearing contrib. (-TS)   =      -0.00029838 Ry

     total magnetization       =     1.00 Bohr mag/cell
     absolute magnetization    =     1.06 Bohr mag/cell

     convergence has been achieved in  24 iterations

     Writing output data file cobre-sixhollow-distance-2.2.save/

     init_run     :     71.65s CPU     72.90s WALL (       1 calls)
     electrons    :   2557.12s CPU   2603.16s WALL (       1 calls)

     Called by init_run:
     wfcinit      :     42.08s CPU     42.33s WALL (       1 calls)
     wfcinit:atom :      0.04s CPU      0.08s WALL (       2 calls)
     wfcinit:wfcr :     41.67s CPU     41.82s WALL (       2 calls)
     potinit      :     12.28s CPU     12.70s WALL (       1 calls)
     hinit0       :      8.71s CPU      8.74s WALL (       1 calls)

     Called by electrons:
     c_bands      :   1588.99s CPU   1596.90s WALL (      24 calls)
     sum_band     :    564.07s CPU    580.74s WALL (      24 calls)
     v_of_rho     :    192.85s CPU    201.29s WALL (      25 calls)
     v_h          :      1.98s CPU      2.05s WALL (      25 calls)
     v_xc         :    190.87s CPU    199.24s WALL (      25 calls)
     newd         :    207.71s CPU    221.29s WALL (      25 calls)
     mix_rho      :     11.60s CPU     11.79s WALL (      24 calls)

     Called by c_bands:
     init_us_2    :      4.87s CPU      4.89s WALL (      98 calls)
     cegterg      :   1576.91s CPU   1584.75s WALL (      48 calls)

     Called by sum_band:
     sum_band:bec :      0.04s CPU      0.04s WALL (      48 calls)
     addusdens    :    356.15s CPU    371.62s WALL (      24 calls)

     Called by *egterg:
     h_psi        :    839.96s CPU    845.49s WALL (     190 calls)
     s_psi        :    279.41s CPU    279.55s WALL (     190 calls)
     g_psi        :      0.85s CPU      0.85s WALL (     140 calls)
     cdiaghg      :     12.19s CPU     12.19s WALL (     188 calls)
     cegterg:over :    197.44s CPU    197.51s WALL (     140 calls)
     cegterg:upda :    113.52s CPU    114.06s WALL (     140 calls)
     cegterg:last :     84.75s CPU     84.77s WALL (      48 calls)

     Called by h_psi:
     h_psi:pot    :    839.01s CPU    843.49s WALL (     190 calls)
     h_psi:calbec :    277.44s CPU    277.60s WALL (     190 calls)
     vloc_psi     :    282.99s CPU    287.22s WALL (     190 calls)
     add_vuspsi   :    278.58s CPU    278.67s WALL (     190 calls)

     General routines
     calbec       :    398.60s CPU    398.81s WALL (     238 calls)
     fft          :    119.19s CPU    122.29s WALL (    1869 calls)
     ffts         :      1.97s CPU      2.03s WALL (      98 calls)
     fftw         :    303.30s CPU    308.02s WALL (   33794 calls)
     interpolate  :      4.70s CPU      4.80s WALL (      50 calls)

     Parallel routines
     fft_scatt_xy :     77.52s CPU     78.34s WALL (   35761 calls)
     fft_scatt_yz :    143.17s CPU    148.98s WALL (   35761 calls)

     PWSCF        :  43m50.12s CPU  44m37.77s WALL


   This run was terminated on:  21:15:11   7Sep2022            

=------------------------------------------------------------------------------=
   JOB DONE.
=------------------------------------------------------------------------------=
