
     Program PWSCF v.6.4.1 starts on  5Sep2022 at  8:59:55 

     This program is part of the open-source Quantum ESPRESSO suite
     for quantum simulation of materials; please cite
         "P. Giannozzi et al., J. Phys.:Condens. Matter 21 395502 (2009);
         "P. Giannozzi et al., J. Phys.:Condens. Matter 29 465901 (2017);
          URL http://www.quantum-espresso.org", 
     in publications or presentations arising from this work. More details at
     http://www.quantum-espresso.org/quote

     Parallel version (MPI), running on     6 processors

     MPI processes distributed on     1 nodes
     R & G space division:  proc/nbgrp/npool/nimage =       6
     Reading input from distance-2.8.in

     Current dimensions of program PWSCF are:
     Max number of different atomic species (ntypx) = 10
     Max number of k-points (npk) =  40000
     Max angular momentum in pseudopotentials (lmaxx) =  3

     IMPORTANT: XC functional enforced from input :
     Exchange-correlation      = RVV10 ( 1  4 13  4 3 0)
     Any further DFT definition will be discarded
     Please, verify this is what you really want

               file H.pbe-rrkjus.UPF: wavefunction(s)  1S renormalized
               file Cu.pbe-dn-rrkjus_psl.1.0.0.UPF: wavefunction(s)  3D renormalized

     Subspace diagonalization in iterative solution of the eigenvalue problem:
     a serial algorithm will be used


     Parallelization info
     --------------------
     sticks:   dense  smooth     PW     G-vecs:    dense   smooth      PW
     Min        3051    1746    432               270999   117096   14629
     Max        3053    1747    437               271001   117099   14630
     Sum       18313   10477   2611              1626001   702581   87777



     bravais-lattice index     =            4
     lattice parameter (alat)  =      23.2937  a.u.
     unit-cell volume          =    8879.8548 (a.u.)^3
     number of atoms/cell      =           52
     number of atomic types    =            3
     number of electrons       =       209.00
     number of Kohn-Sham states=          126
     kinetic-energy cutoff     =      70.0000  Ry
     charge density cutoff     =     490.0000  Ry
     convergence threshold     =      1.0E-06
     mixing beta               =       0.7000
     number of iterations used =            8  plain     mixing
     Exchange-correlation      = RVV10 ( 1  4 13  4 3 0)

     celldm(1)=  23.293684  celldm(2)=   0.000000  celldm(3)=   0.811261
     celldm(4)=   0.000000  celldm(5)=   0.000000  celldm(6)=   0.000000

     crystal axes: (cart. coord. in units of alat)
               a(1) = (   1.000000   0.000000   0.000000 )  
               a(2) = (  -0.500000   0.866025   0.000000 )  
               a(3) = (   0.000000   0.000000   0.811261 )  

     reciprocal axes: (cart. coord. in units 2 pi/alat)
               b(1) = (  1.000000  0.577350 -0.000000 )  
               b(2) = (  0.000000  1.154701  0.000000 )  
               b(3) = (  0.000000 -0.000000  1.232649 )  


     PseudoPot. # 1 for H  read from file:
     /home/cristian/Escritorio/Proyecto_Grafeno/pseudopotenciales/H.pbe-rrkjus.UPF
     MD5 check sum: 7cc9d459525c9a0585f487a71c3c9563
     Pseudo is Ultrasoft, Zval =  1.0
     Generated by new atomic code, or converted to UPF format
     Using radial grid of 1061 points,  2 beta functions with: 
                l(1) =   0
                l(2) =   0
     Q(r) pseudized with 0 coefficients 


     PseudoPot. # 2 for C  read from file:
     /home/cristian/Escritorio/Proyecto_Grafeno/pseudopotenciales/C.pbe-n-rrkjus_psl.1.0.0.UPF
     MD5 check sum: 1fdd950c42eb37d8afe3dd2f8d12311e
     Pseudo is Ultrasoft + core correction, Zval =  4.0
     Generated using "atomic" code by A. Dal Corso v.6.3MaX
     Using radial grid of 1073 points,  4 beta functions with: 
                l(1) =   0
                l(2) =   0
                l(3) =   1
                l(4) =   1
     Q(r) pseudized with 0 coefficients 


     PseudoPot. # 3 for Cu read from file:
     /home/cristian/Escritorio/Proyecto_Grafeno/pseudopotenciales/Cu.pbe-dn-rrkjus_psl.1.0.0.UPF
     MD5 check sum: ba3d6c84e19846e79d48cdc68ff7152b
     Pseudo is Ultrasoft + core correction, Zval = 11.0
     Generated using "atomic" code by A. Dal Corso v.6.3
     Using radial grid of 1199 points,  6 beta functions with: 
                l(1) =   0
                l(2) =   0
                l(3) =   1
                l(4) =   1
                l(5) =   2
                l(6) =   2
     Q(r) pseudized with 0 coefficients 


     vdW kernel table read from file rVV10_kernel_table
     MD5 check sum: b8e2538accc0c0b3206b45ba4daaba6c

     atomic species   valence    mass     pseudopotential
        H              1.00     1.00794     H ( 1.00)
        C              4.00    12.01070     C ( 1.00)
        Cu            11.00    63.54600     Cu( 1.00)

     Starting magnetic structure 
     atomic species   magnetization
        H            0.500
        C            0.300
        Cu           0.800

     No symmetry found


                                    s                        frac. trans.

      isym =  1     identity                                     

 cryst.   s( 1) = (     1          0          0      )
                  (     0          1          0      )
                  (     0          0          1      )

 cart.    s( 1) = (  1.0000000  0.0000000  0.0000000 )
                  (  0.0000000  1.0000000  0.0000000 )
                  (  0.0000000  0.0000000  1.0000000 )


     point group C_1 (1)    
     there are  1 classes
     the character table:

       E    
A      1.00

     the symmetry operations in each class and the name of the first element:

     E        1
          identity                                               

   Cartesian axes

     site n.     atom                  positions (alat units)
         1           H   tau(   1) = (   0.2500000   0.4907477   0.2271531  )
         2           H   tau(   2) = (   0.2500000   0.4907477   0.2881658  )
         3           C   tau(   3) = (   0.0000000   0.0000000   0.0000000  )
         4           C   tau(   4) = (   0.0000000   0.1154701   0.0000000  )
         5           C   tau(   5) = (  -0.1000000   0.1732051   0.0000000  )
         6           C   tau(   6) = (  -0.1000000   0.2886751   0.0000000  )
         7           C   tau(   7) = (  -0.2000000   0.3464102   0.0000000  )
         8           C   tau(   8) = (  -0.2000000   0.4618802   0.0000000  )
         9           C   tau(   9) = (  -0.3000000   0.5196152   0.0000000  )
        10           C   tau(  10) = (  -0.3000000   0.6350853   0.0000000  )
        11           C   tau(  11) = (  -0.4000000   0.6928203   0.0000000  )
        12           C   tau(  12) = (  -0.4000000   0.8082904   0.0000000  )
        13           C   tau(  13) = (   0.2000000   0.0000000   0.0000000  )
        14           C   tau(  14) = (   0.2000000   0.1154701   0.0000000  )
        15           C   tau(  15) = (   0.1000000   0.1732051   0.0000000  )
        16           C   tau(  16) = (   0.1000000   0.2886751   0.0000000  )
        17           C   tau(  17) = (   0.0000000   0.3464102   0.0000000  )
        18           C   tau(  18) = (   0.0000000   0.4618802   0.0000000  )
        19           C   tau(  19) = (  -0.1000000   0.5196152   0.0000000  )
        20           C   tau(  20) = (  -0.1000000   0.6350853   0.0000000  )
        21           C   tau(  21) = (  -0.2000000   0.6928203   0.0000000  )
        22           C   tau(  22) = (  -0.2000000   0.8082904   0.0000000  )
        23           C   tau(  23) = (   0.4000000   0.0000000   0.0000000  )
        24           C   tau(  24) = (   0.4000000   0.1154701   0.0000000  )
        25           C   tau(  25) = (   0.3000000   0.1732051   0.0000000  )
        26           C   tau(  26) = (   0.3000000   0.2886751   0.0000000  )
        27           C   tau(  27) = (   0.2000000   0.3464102   0.0000000  )
        28           Cu  tau(  28) = (   0.2000000   0.4618802   0.0000000  )
        29           C   tau(  29) = (   0.1000000   0.5196152   0.0000000  )
        30           C   tau(  30) = (   0.1000000   0.6350853   0.0000000  )
        31           C   tau(  31) = (   0.0000000   0.6928203   0.0000000  )
        32           C   tau(  32) = (   0.0000000   0.8082904   0.0000000  )
        33           C   tau(  33) = (   0.6000000   0.0000000   0.0000000  )
        34           C   tau(  34) = (   0.6000000   0.1154701   0.0000000  )
        35           C   tau(  35) = (   0.5000000   0.1732051   0.0000000  )
        36           C   tau(  36) = (   0.5000000   0.2886751   0.0000000  )
        37           C   tau(  37) = (   0.4000000   0.3464102   0.0000000  )
        38           C   tau(  38) = (   0.4000000   0.4618802   0.0000000  )
        39           C   tau(  39) = (   0.3000000   0.5196152   0.0000000  )
        40           C   tau(  40) = (   0.3000000   0.6350853   0.0000000  )
        41           C   tau(  41) = (   0.2000000   0.6928203   0.0000000  )
        42           C   tau(  42) = (   0.2000000   0.8082904   0.0000000  )
        43           C   tau(  43) = (   0.8000000   0.0000000   0.0000000  )
        44           C   tau(  44) = (   0.8000000   0.1154701   0.0000000  )
        45           C   tau(  45) = (   0.7000000   0.1732051   0.0000000  )
        46           C   tau(  46) = (   0.7000000   0.2886751   0.0000000  )
        47           C   tau(  47) = (   0.6000000   0.3464102   0.0000000  )
        48           C   tau(  48) = (   0.6000000   0.4618802   0.0000000  )
        49           C   tau(  49) = (   0.5000000   0.5196152   0.0000000  )
        50           C   tau(  50) = (   0.5000000   0.6350853   0.0000000  )
        51           C   tau(  51) = (   0.4000000   0.6928203   0.0000000  )
        52           C   tau(  52) = (   0.4000000   0.8082904   0.0000000  )

   Crystallographic axes

     site n.     atom                  positions (cryst. coord.)
         1           H   tau(   1) = (  0.5333333  0.5666667  0.2800000  )
         2           H   tau(   2) = (  0.5333333  0.5666667  0.3552072  )
         3           C   tau(   3) = (  0.0000000  0.0000000  0.0000000  )
         4           C   tau(   4) = (  0.0666667  0.1333333  0.0000000  )
         5           C   tau(   5) = (  0.0000000  0.2000000  0.0000000  )
         6           C   tau(   6) = (  0.0666667  0.3333333  0.0000000  )
         7           C   tau(   7) = (  0.0000000  0.4000000  0.0000000  )
         8           C   tau(   8) = (  0.0666667  0.5333333  0.0000000  )
         9           C   tau(   9) = (  0.0000000  0.6000000  0.0000000  )
        10           C   tau(  10) = (  0.0666667  0.7333333  0.0000000  )
        11           C   tau(  11) = (  0.0000000  0.8000000  0.0000000  )
        12           C   tau(  12) = (  0.0666667  0.9333333  0.0000000  )
        13           C   tau(  13) = (  0.2000000  0.0000000  0.0000000  )
        14           C   tau(  14) = (  0.2666667  0.1333333  0.0000000  )
        15           C   tau(  15) = (  0.2000000  0.2000000  0.0000000  )
        16           C   tau(  16) = (  0.2666667  0.3333333  0.0000000  )
        17           C   tau(  17) = (  0.2000000  0.4000000  0.0000000  )
        18           C   tau(  18) = (  0.2666667  0.5333333  0.0000000  )
        19           C   tau(  19) = (  0.2000000  0.6000000  0.0000000  )
        20           C   tau(  20) = (  0.2666667  0.7333333  0.0000000  )
        21           C   tau(  21) = (  0.2000000  0.8000000  0.0000000  )
        22           C   tau(  22) = (  0.2666667  0.9333333  0.0000000  )
        23           C   tau(  23) = (  0.4000000  0.0000000  0.0000000  )
        24           C   tau(  24) = (  0.4666667  0.1333333  0.0000000  )
        25           C   tau(  25) = (  0.4000000  0.2000000  0.0000000  )
        26           C   tau(  26) = (  0.4666667  0.3333333  0.0000000  )
        27           C   tau(  27) = (  0.4000000  0.4000000  0.0000000  )
        28           Cu  tau(  28) = (  0.4666667  0.5333333  0.0000000  )
        29           C   tau(  29) = (  0.4000000  0.6000000  0.0000000  )
        30           C   tau(  30) = (  0.4666667  0.7333333  0.0000000  )
        31           C   tau(  31) = (  0.4000000  0.8000000  0.0000000  )
        32           C   tau(  32) = (  0.4666667  0.9333333  0.0000000  )
        33           C   tau(  33) = (  0.6000000  0.0000000  0.0000000  )
        34           C   tau(  34) = (  0.6666667  0.1333333  0.0000000  )
        35           C   tau(  35) = (  0.6000000  0.2000000  0.0000000  )
        36           C   tau(  36) = (  0.6666667  0.3333333  0.0000000  )
        37           C   tau(  37) = (  0.6000000  0.4000000  0.0000000  )
        38           C   tau(  38) = (  0.6666667  0.5333333  0.0000000  )
        39           C   tau(  39) = (  0.6000000  0.6000000  0.0000000  )
        40           C   tau(  40) = (  0.6666667  0.7333333  0.0000000  )
        41           C   tau(  41) = (  0.6000000  0.8000000  0.0000000  )
        42           C   tau(  42) = (  0.6666667  0.9333333  0.0000000  )
        43           C   tau(  43) = (  0.8000000  0.0000000  0.0000000  )
        44           C   tau(  44) = (  0.8666667  0.1333333  0.0000000  )
        45           C   tau(  45) = (  0.8000000  0.2000000  0.0000000  )
        46           C   tau(  46) = (  0.8666667  0.3333333  0.0000000  )
        47           C   tau(  47) = (  0.8000000  0.4000000  0.0000000  )
        48           C   tau(  48) = (  0.8666667  0.5333333  0.0000000  )
        49           C   tau(  49) = (  0.8000000  0.6000000  0.0000000  )
        50           C   tau(  50) = (  0.8666667  0.7333333  0.0000000  )
        51           C   tau(  51) = (  0.8000000  0.8000000  0.0000000  )
        52           C   tau(  52) = (  0.8666667  0.9333333  0.0000000  )

     number of k points=     1  Marzari-Vanderbilt smearing, width (Ry)=  0.0010
                       cart. coord. in units 2pi/alat
        k(    1) = (   0.0000000   0.0000000   0.0000000), wk =   1.0000000

                       cryst. coord.
        k(    1) = (   0.0000000   0.0000000   0.0000000), wk =   1.0000000

     Dense  grid:  1626001 G-vectors     FFT dimensions: ( 180, 180, 135)

     Smooth grid:   702581 G-vectors     FFT dimensions: ( 125, 125, 108)

     Dynamical RAM for                 wfc:      28.14 MB

     Dynamical RAM for     wfc (w. buffer):      84.42 MB

     Dynamical RAM for           str. fact:      12.41 MB

     Dynamical RAM for           local pot:       0.00 MB

     Dynamical RAM for          nlocal pot:      92.46 MB

     Dynamical RAM for                qrad:      19.73 MB

     Dynamical RAM for          rho,v,vnew:      58.92 MB

     Dynamical RAM for               rhoin:      19.64 MB

     Dynamical RAM for            rho*nmix:     132.32 MB

     Dynamical RAM for           G-vectors:      16.40 MB

     Dynamical RAM for          h,s,v(r/c):      11.63 MB

     Dynamical RAM for          <psi|beta>:       0.80 MB

     Dynamical RAM for                 psi:     112.56 MB

     Dynamical RAM for                hpsi:     112.56 MB

     Dynamical RAM for                spsi:     112.56 MB

     Dynamical RAM for      wfcinit/wfcrot:      93.45 MB

     Dynamical RAM for           addusdens:     975.89 MB

     Estimated static dynamical RAM per process >     486.96 MB

     Estimated max dynamical RAM per process >       1.43 GB

     Estimated total dynamical RAM >       8.57 GB
     Generating pointlists ...
     new r_m :   0.0252 (alat units)  0.5862 (a.u.) for type    1
     new r_m :   0.0476 (alat units)  1.1095 (a.u.) for type    2
     new r_m :   0.0476 (alat units)  1.1095 (a.u.) for type    3

     Check: negative core charge=   -0.000002

     Initial potential from superposition of free atoms

     starting charge  208.80532, renormalised to  209.00000

     negative rho (up, down):  6.197E-05 1.049E-02


---------------------------------------------------------------------------------
Carrying out rVV10 run using the following parameters:
Nqs =      20    Nr_points =    1024   r_max =   100.000
b_value =  6.30000    beta =  0.00901
     q_mesh =  0.00010000  0.00030000  0.00058939  0.00100810
               0.00161396  0.00249058  0.00375900  0.00559430
               0.00824984  0.01209221  0.01765183  0.02569619
               0.03733578  0.05417739  0.07854596  0.11380545
               0.16482331  0.23864234  0.34545298  0.50000000

Gradients computed in Reciprocal space

---------------------------------------------------------------------------------


     Starting wfcs are  207 randomized atomic wfcs

     total cpu time spent up to now is       75.5 secs

     Self-consistent Calculation

     iteration #  1     ecut=    70.00 Ry     beta= 0.70
     Davidson diagonalization with overlap
     ethr =  1.00E-02,  avg # of iterations =  2.0

     negative rho (up, down):  1.479E-04 1.101E-02

     total cpu time spent up to now is      208.5 secs

     total energy              =    -727.66857489 Ry
     Harris-Foulkes estimate   =    -734.87268003 Ry
     estimated scf accuracy    <      13.90910136 Ry

     total magnetization       =     7.00 Bohr mag/cell
     absolute magnetization    =     7.39 Bohr mag/cell

     iteration #  2     ecut=    70.00 Ry     beta= 0.70
     Davidson diagonalization with overlap
     ethr =  6.66E-03,  avg # of iterations =  4.0

     negative rho (up, down):  1.648E-04 9.848E-03

     total cpu time spent up to now is      337.8 secs

     total energy              =    -729.51252488 Ry
     Harris-Foulkes estimate   =    -744.25020867 Ry
     estimated scf accuracy    <      37.05362376 Ry

     total magnetization       =     2.92 Bohr mag/cell
     absolute magnetization    =     3.22 Bohr mag/cell

     iteration #  3     ecut=    70.00 Ry     beta= 0.70
     Davidson diagonalization with overlap
     ethr =  6.66E-03,  avg # of iterations =  5.0

     negative rho (up, down):  1.985E-04 8.154E-03

     total cpu time spent up to now is      448.3 secs

     total energy              =    -732.53783776 Ry
     Harris-Foulkes estimate   =    -735.80315524 Ry
     estimated scf accuracy    <       8.62741615 Ry

     total magnetization       =     1.00 Bohr mag/cell
     absolute magnetization    =     1.59 Bohr mag/cell

     iteration #  4     ecut=    70.00 Ry     beta= 0.70
     Davidson diagonalization with overlap
     ethr =  4.13E-03,  avg # of iterations =  3.0

     negative rho (up, down):  2.487E-04 6.899E-03

     total cpu time spent up to now is      558.3 secs

     total energy              =    -733.68350135 Ry
     Harris-Foulkes estimate   =    -735.19306843 Ry
     estimated scf accuracy    <       6.37219662 Ry

     total magnetization       =     3.00 Bohr mag/cell
     absolute magnetization    =     3.15 Bohr mag/cell

     iteration #  5     ecut=    70.00 Ry     beta= 0.70
     Davidson diagonalization with overlap
     ethr =  3.05E-03,  avg # of iterations =  2.5

     negative rho (up, down):  2.875E-04 1.011E-02

     total cpu time spent up to now is      656.2 secs

     total energy              =    -734.38353369 Ry
     Harris-Foulkes estimate   =    -734.99628828 Ry
     estimated scf accuracy    <       2.87952773 Ry

     total magnetization       =     1.00 Bohr mag/cell
     absolute magnetization    =     1.43 Bohr mag/cell

     iteration #  6     ecut=    70.00 Ry     beta= 0.70
     Davidson diagonalization with overlap
     ethr =  1.38E-03,  avg # of iterations =  2.5

     negative rho (up, down):  3.703E-04 1.496E-02

     total cpu time spent up to now is      755.6 secs

     total energy              =    -734.69437003 Ry
     Harris-Foulkes estimate   =    -734.78013090 Ry
     estimated scf accuracy    <       0.22484183 Ry

     total magnetization       =     1.00 Bohr mag/cell
     absolute magnetization    =     1.33 Bohr mag/cell

     iteration #  7     ecut=    70.00 Ry     beta= 0.70
     Davidson diagonalization with overlap
     ethr =  1.08E-04,  avg # of iterations =  7.0

     negative rho (up, down):  5.086E-04 8.602E-03

     total cpu time spent up to now is      875.8 secs

     total energy              =    -734.72303506 Ry
     Harris-Foulkes estimate   =    -734.80227601 Ry
     estimated scf accuracy    <       0.29431180 Ry

     total magnetization       =     1.00 Bohr mag/cell
     absolute magnetization    =     1.24 Bohr mag/cell

     iteration #  8     ecut=    70.00 Ry     beta= 0.70
     Davidson diagonalization with overlap
     ethr =  1.08E-04,  avg # of iterations =  3.0

     negative rho (up, down):  5.634E-04 4.330E-03

     total cpu time spent up to now is      975.7 secs

     total energy              =    -734.75339687 Ry
     Harris-Foulkes estimate   =    -734.76354886 Ry
     estimated scf accuracy    <       0.04264506 Ry

     total magnetization       =     1.00 Bohr mag/cell
     absolute magnetization    =     1.21 Bohr mag/cell

     iteration #  9     ecut=    70.00 Ry     beta= 0.70
     Davidson diagonalization with overlap
     ethr =  2.04E-05,  avg # of iterations = 10.0

     negative rho (up, down):  5.988E-04 3.209E-03

     total cpu time spent up to now is     1087.7 secs

     total energy              =    -734.75861797 Ry
     Harris-Foulkes estimate   =    -734.76137671 Ry
     estimated scf accuracy    <       0.03818908 Ry

     total magnetization       =     1.00 Bohr mag/cell
     absolute magnetization    =     1.17 Bohr mag/cell

     iteration # 10     ecut=    70.00 Ry     beta= 0.70
     Davidson diagonalization with overlap
     ethr =  1.83E-05,  avg # of iterations =  1.0

     negative rho (up, down):  6.241E-04 2.224E-03

     total cpu time spent up to now is     1183.8 secs

     total energy              =    -734.75963217 Ry
     Harris-Foulkes estimate   =    -734.76013500 Ry
     estimated scf accuracy    <       0.00216657 Ry

     total magnetization       =     1.00 Bohr mag/cell
     absolute magnetization    =     1.14 Bohr mag/cell

     iteration # 11     ecut=    70.00 Ry     beta= 0.70
     Davidson diagonalization with overlap
     ethr =  1.04E-06,  avg # of iterations =  6.0

     negative rho (up, down):  6.274E-04 3.126E-03

     total cpu time spent up to now is     1301.1 secs

     total energy              =    -734.75967339 Ry
     Harris-Foulkes estimate   =    -734.76065236 Ry
     estimated scf accuracy    <       0.01591874 Ry

     total magnetization       =     1.00 Bohr mag/cell
     absolute magnetization    =     1.12 Bohr mag/cell

     iteration # 12     ecut=    70.00 Ry     beta= 0.70
     Davidson diagonalization with overlap
     ethr =  1.04E-06,  avg # of iterations =  2.0

     negative rho (up, down):  6.309E-04 2.390E-03

     total cpu time spent up to now is     1397.7 secs

     total energy              =    -734.76008611 Ry
     Harris-Foulkes estimate   =    -734.76040859 Ry
     estimated scf accuracy    <       0.00605995 Ry

     total magnetization       =     1.00 Bohr mag/cell
     absolute magnetization    =     1.11 Bohr mag/cell

     iteration # 13     ecut=    70.00 Ry     beta= 0.70
     Davidson diagonalization with overlap
     ethr =  1.04E-06,  avg # of iterations =  1.0

     negative rho (up, down):  6.251E-04 1.760E-03

     total cpu time spent up to now is     1493.8 secs

     total energy              =    -734.76030610 Ry
     Harris-Foulkes estimate   =    -734.76030152 Ry
     estimated scf accuracy    <       0.00006842 Ry

     total magnetization       =     1.00 Bohr mag/cell
     absolute magnetization    =     1.10 Bohr mag/cell

     iteration # 14     ecut=    70.00 Ry     beta= 0.70
     Davidson diagonalization with overlap
     ethr =  3.27E-08,  avg # of iterations =  3.0

     negative rho (up, down):  6.195E-04 1.569E-03

     total cpu time spent up to now is     1615.4 secs

     total energy              =    -734.76033632 Ry
     Harris-Foulkes estimate   =    -734.76033411 Ry
     estimated scf accuracy    <       0.00004011 Ry

     total magnetization       =     1.00 Bohr mag/cell
     absolute magnetization    =     1.09 Bohr mag/cell

     iteration # 15     ecut=    70.00 Ry     beta= 0.70
     Davidson diagonalization with overlap
     ethr =  1.92E-08,  avg # of iterations =  2.5

     negative rho (up, down):  6.194E-04 1.581E-03

     total cpu time spent up to now is     1722.6 secs

     total energy              =    -734.76034335 Ry
     Harris-Foulkes estimate   =    -734.76034451 Ry
     estimated scf accuracy    <       0.00009527 Ry

     total magnetization       =     1.00 Bohr mag/cell
     absolute magnetization    =     1.08 Bohr mag/cell

     iteration # 16     ecut=    70.00 Ry     beta= 0.70
     Davidson diagonalization with overlap
     ethr =  1.92E-08,  avg # of iterations =  1.5

     negative rho (up, down):  6.163E-04 1.572E-03

     total cpu time spent up to now is     1818.8 secs

     total energy              =    -734.76034249 Ry
     Harris-Foulkes estimate   =    -734.76034500 Ry
     estimated scf accuracy    <       0.00005720 Ry

     total magnetization       =     1.00 Bohr mag/cell
     absolute magnetization    =     1.07 Bohr mag/cell

     iteration # 17     ecut=    70.00 Ry     beta= 0.70
     Davidson diagonalization with overlap
     ethr =  1.92E-08,  avg # of iterations =  2.0

     negative rho (up, down):  6.172E-04 1.555E-03

     total cpu time spent up to now is     1917.1 secs

     total energy              =    -734.76034130 Ry
     Harris-Foulkes estimate   =    -734.76035101 Ry
     estimated scf accuracy    <       0.00007130 Ry

     total magnetization       =     1.00 Bohr mag/cell
     absolute magnetization    =     1.07 Bohr mag/cell

     iteration # 18     ecut=    70.00 Ry     beta= 0.70
     Davidson diagonalization with overlap
     ethr =  1.92E-08,  avg # of iterations =  1.5

     negative rho (up, down):  6.164E-04 1.564E-03

     total cpu time spent up to now is     2013.4 secs

     total energy              =    -734.76034773 Ry
     Harris-Foulkes estimate   =    -734.76034694 Ry
     estimated scf accuracy    <       0.00002698 Ry

     total magnetization       =     1.00 Bohr mag/cell
     absolute magnetization    =     1.07 Bohr mag/cell

     iteration # 19     ecut=    70.00 Ry     beta= 0.70
     Davidson diagonalization with overlap
     ethr =  1.29E-08,  avg # of iterations =  2.0

     negative rho (up, down):  6.162E-04 1.572E-03

     total cpu time spent up to now is     2109.8 secs

     total energy              =    -734.76034746 Ry
     Harris-Foulkes estimate   =    -734.76034917 Ry
     estimated scf accuracy    <       0.00005077 Ry

     total magnetization       =     1.00 Bohr mag/cell
     absolute magnetization    =     1.07 Bohr mag/cell

     iteration # 20     ecut=    70.00 Ry     beta= 0.70
     Davidson diagonalization with overlap
     ethr =  1.29E-08,  avg # of iterations =  1.0

     negative rho (up, down):  6.160E-04 1.574E-03

     total cpu time spent up to now is     2205.6 secs

     total energy              =    -734.76034796 Ry
     Harris-Foulkes estimate   =    -734.76034836 Ry
     estimated scf accuracy    <       0.00002632 Ry

     total magnetization       =     1.00 Bohr mag/cell
     absolute magnetization    =     1.07 Bohr mag/cell

     iteration # 21     ecut=    70.00 Ry     beta= 0.70
     Davidson diagonalization with overlap
     ethr =  1.26E-08,  avg # of iterations =  1.0

     negative rho (up, down):  6.160E-04 1.563E-03

     total cpu time spent up to now is     2304.0 secs

     total energy              =    -734.76034810 Ry
     Harris-Foulkes estimate   =    -734.76034831 Ry
     estimated scf accuracy    <       0.00001279 Ry

     total magnetization       =     1.00 Bohr mag/cell
     absolute magnetization    =     1.06 Bohr mag/cell

     iteration # 22     ecut=    70.00 Ry     beta= 0.70
     Davidson diagonalization with overlap
     ethr =  6.12E-09,  avg # of iterations =  1.5

     negative rho (up, down):  6.156E-04 1.563E-03

     total cpu time spent up to now is     2400.0 secs

     total energy              =    -734.76034774 Ry
     Harris-Foulkes estimate   =    -734.76034834 Ry
     estimated scf accuracy    <       0.00000576 Ry

     total magnetization       =     1.00 Bohr mag/cell
     absolute magnetization    =     1.06 Bohr mag/cell

     iteration # 23     ecut=    70.00 Ry     beta= 0.70
     Davidson diagonalization with overlap
     ethr =  2.76E-09,  avg # of iterations =  2.0

     negative rho (up, down):  6.160E-04 1.561E-03

     total cpu time spent up to now is     2497.9 secs

     total energy              =    -734.76034813 Ry
     Harris-Foulkes estimate   =    -734.76034831 Ry
     estimated scf accuracy    <       0.00000234 Ry

     total magnetization       =     1.00 Bohr mag/cell
     absolute magnetization    =     1.06 Bohr mag/cell

     iteration # 24     ecut=    70.00 Ry     beta= 0.70
     Davidson diagonalization with overlap
     ethr =  1.12E-09,  avg # of iterations =  2.0

     negative rho (up, down):  6.161E-04 1.564E-03

     total cpu time spent up to now is     2595.1 secs

     total energy              =    -734.76034843 Ry
     Harris-Foulkes estimate   =    -734.76034844 Ry
     estimated scf accuracy    <       0.00000598 Ry

     total magnetization       =     1.00 Bohr mag/cell
     absolute magnetization    =     1.06 Bohr mag/cell

     iteration # 25     ecut=    70.00 Ry     beta= 0.70
     Davidson diagonalization with overlap
     ethr =  1.12E-09,  avg # of iterations =  1.5

     negative rho (up, down):  6.160E-04 1.563E-03

     total cpu time spent up to now is     2692.1 secs

     total energy              =    -734.76034834 Ry
     Harris-Foulkes estimate   =    -734.76034850 Ry
     estimated scf accuracy    <       0.00000540 Ry

     total magnetization       =     1.00 Bohr mag/cell
     absolute magnetization    =     1.06 Bohr mag/cell

     iteration # 26     ecut=    70.00 Ry     beta= 0.70
     Davidson diagonalization with overlap
     ethr =  1.12E-09,  avg # of iterations =  1.5

     negative rho (up, down):  6.161E-04 1.560E-03

     total cpu time spent up to now is     2788.4 secs

     total energy              =    -734.76034838 Ry
     Harris-Foulkes estimate   =    -734.76034843 Ry
     estimated scf accuracy    <       0.00000147 Ry

     total magnetization       =     1.00 Bohr mag/cell
     absolute magnetization    =     1.06 Bohr mag/cell

     iteration # 27     ecut=    70.00 Ry     beta= 0.70
     Davidson diagonalization with overlap
     ethr =  7.02E-10,  avg # of iterations =  1.5

     negative rho (up, down):  6.161E-04 1.565E-03

     Magnetic moment per site:
     atom:    1    charge:    0.2113    magn:    0.0000    constr:    0.0000
     atom:    2    charge:    0.2112    magn:   -0.0000    constr:    0.0000
     atom:    3    charge:    1.7158    magn:    0.0017    constr:    0.0000
     atom:    4    charge:    1.7153    magn:    0.0018    constr:    0.0000
     atom:    5    charge:    1.7170    magn:    0.0000    constr:    0.0000
     atom:    6    charge:    1.7146    magn:   -0.0000    constr:    0.0000
     atom:    7    charge:    1.7170    magn:    0.0000    constr:    0.0000
     atom:    8    charge:    1.7153    magn:    0.0018    constr:    0.0000
     atom:    9    charge:    1.7158    magn:    0.0017    constr:    0.0000
     atom:   10    charge:    1.7170    magn:   -0.0009    constr:    0.0000
     atom:   11    charge:    1.7160    magn:    0.0006    constr:    0.0000
     atom:   12    charge:    1.7170    magn:   -0.0009    constr:    0.0000
     atom:   13    charge:    1.7160    magn:    0.0005    constr:    0.0000
     atom:   14    charge:    1.7168    magn:   -0.0010    constr:    0.0000
     atom:   15    charge:    1.7130    magn:    0.0072    constr:    0.0000
     atom:   16    charge:    1.7108    magn:    0.0138    constr:    0.0000
     atom:   17    charge:    1.7213    magn:    0.0029    constr:    0.0000
     atom:   18    charge:    1.7108    magn:    0.0138    constr:    0.0000
     atom:   19    charge:    1.7130    magn:    0.0072    constr:    0.0000
     atom:   20    charge:    1.7168    magn:   -0.0010    constr:    0.0000
     atom:   21    charge:    1.7160    magn:    0.0005    constr:    0.0000
     atom:   22    charge:    1.7170    magn:   -0.0009    constr:    0.0000
     atom:   23    charge:    1.7157    magn:    0.0016    constr:    0.0000
     atom:   24    charge:    1.7153    magn:    0.0017    constr:    0.0000
     atom:   25    charge:    1.7129    magn:    0.0070    constr:    0.0000
     atom:   26    charge:    1.7107    magn:    0.0128    constr:    0.0000
     atom:   27    charge:    1.8171    magn:    0.0780    constr:    0.0000
     atom:   28    charge:    7.0287    magn:    0.1547    constr:    0.0000
     atom:   29    charge:    1.8171    magn:    0.0780    constr:    0.0000
     atom:   30    charge:    1.7107    magn:    0.0128    constr:    0.0000
     atom:   31    charge:    1.7129    magn:    0.0070    constr:    0.0000
     atom:   32    charge:    1.7153    magn:    0.0017    constr:    0.0000
     atom:   33    charge:    1.7169    magn:    0.0000    constr:    0.0000
     atom:   34    charge:    1.7153    magn:   -0.0000    constr:    0.0000
     atom:   35    charge:    1.7169    magn:    0.0000    constr:    0.0000
     atom:   36    charge:    1.7146    magn:   -0.0001    constr:    0.0000
     atom:   37    charge:    1.7213    magn:    0.0031    constr:    0.0000
     atom:   38    charge:    1.7107    magn:    0.0130    constr:    0.0000
     atom:   39    charge:    1.8180    magn:    0.0824    constr:    0.0000
     atom:   40    charge:    1.7107    magn:    0.0130    constr:    0.0000
     atom:   41    charge:    1.7213    magn:    0.0031    constr:    0.0000
     atom:   42    charge:    1.7146    magn:   -0.0001    constr:    0.0000
     atom:   43    charge:    1.7169    magn:    0.0000    constr:    0.0000
     atom:   44    charge:    1.7153    magn:   -0.0000    constr:    0.0000
     atom:   45    charge:    1.7211    magn:   -0.0007    constr:    0.0000
     atom:   46    charge:    1.7153    magn:   -0.0000    constr:    0.0000
     atom:   47    charge:    1.7169    magn:    0.0000    constr:    0.0000
     atom:   48    charge:    1.7153    magn:    0.0018    constr:    0.0000
     atom:   49    charge:    1.7130    magn:    0.0075    constr:    0.0000
     atom:   50    charge:    1.7168    magn:   -0.0010    constr:    0.0000
     atom:   51    charge:    1.7130    magn:    0.0075    constr:    0.0000
     atom:   52    charge:    1.7153    magn:    0.0018    constr:    0.0000

     total cpu time spent up to now is     2884.3 secs

     End of self-consistent calculation

 ------ SPIN UP ------------


          k = 0.0000 0.0000 0.0000 ( 87777 PWs)   bands (ev):

   -19.8502 -19.0090 -19.0069 -18.9128 -18.9120 -18.8507 -18.7758 -17.1790
   -17.1784 -17.1407 -17.0978 -17.0965 -16.8190 -16.3385 -16.3372 -16.1924
   -16.1915 -16.1696 -15.7792 -14.4365 -14.4346 -14.1389 -14.0432 -14.0428
   -13.5868 -13.1760 -13.1758 -13.0890 -12.9474 -12.9466 -12.6419 -12.3278
   -12.3274 -11.7237 -11.6182 -11.6180 -11.1973 -10.9495 -10.9483  -9.5344
    -9.3736  -9.3732  -9.2519  -9.2423  -9.2421  -9.2330  -9.1285  -9.1281
    -9.0709  -9.0702  -8.9735  -8.7271  -8.7265  -7.9739  -7.9058  -7.8501
    -7.6739  -7.6729  -7.5435  -7.5433  -7.0021  -6.8510  -6.8493  -6.8472
    -6.8273  -6.7859  -6.7251  -6.7229  -6.6283  -6.6274  -6.5831  -6.5766
    -6.5760  -6.5307  -6.4457  -6.4082  -6.4071  -5.6226  -5.6222  -5.0378
    -5.0081  -4.9657  -4.8950  -4.8948  -4.7704  -4.7340  -4.7337  -4.5505
    -4.5489  -4.4728  -3.8606  -3.8600  -3.8275  -3.8271  -3.7909  -3.6494
    -3.6484  -3.4113  -1.8917  -1.8349  -1.8346  -1.7441  -1.7422  -1.2328
    -0.8527  -0.8520   0.9026   0.9390   0.9397   1.0836   1.0849   1.4855
     2.4909   2.7843   2.7853   2.8298   2.9185   2.9201   3.3813   3.6040
     3.6058   3.7284   3.7322   3.7503   3.8891   4.2309

     occupation numbers 
     1.0000   1.0000   1.0000   1.0000   1.0000   1.0000   1.0000   1.0000
     1.0000   1.0000   1.0000   1.0000   1.0000   1.0000   1.0000   1.0000
     1.0000   1.0000   1.0000   1.0000   1.0000   1.0000   1.0000   1.0000
     1.0000   1.0000   1.0000   1.0000   1.0000   1.0000   1.0000   1.0000
     1.0000   1.0000   1.0000   1.0000   1.0000   1.0000   1.0000   1.0000
     1.0000   1.0000   1.0000   1.0000   1.0000   1.0000   1.0000   1.0000
     1.0000   1.0000   1.0000   1.0000   1.0000   1.0000   1.0000   1.0000
     1.0000   1.0000   1.0000   1.0000   1.0000   1.0000   1.0000   1.0000
     1.0000   1.0000   1.0000   1.0000   1.0000   1.0000   1.0000   1.0000
     1.0000   1.0000   1.0000   1.0000   1.0000   1.0000   1.0000   1.0000
     1.0000   1.0000   1.0000   1.0000   1.0000   1.0000   1.0000   1.0000
     1.0000   1.0000   1.0000   1.0000   1.0000   1.0000   1.0000   1.0000
     1.0000   1.0000   1.0000   1.0000   1.0000   1.0000   1.0000   1.0000
     0.5177   0.4823   0.0000   0.0000   0.0000   0.0000   0.0000   0.0000
     0.0000   0.0000   0.0000   0.0000   0.0000   0.0000   0.0000   0.0000
     0.0000   0.0000   0.0000   0.0000   0.0000   0.0000

 ------ SPIN DOWN ----------


          k = 0.0000 0.0000 0.0000 ( 87777 PWs)   bands (ev):

   -19.8250 -18.9769 -18.9739 -18.9060 -18.9052 -18.8475 -18.7004 -17.1391
   -17.1388 -17.1247 -17.0766 -17.0743 -16.7855 -16.3013 -16.2997 -16.1713
   -16.1695 -16.1627 -15.7037 -14.3457 -14.3450 -14.1147 -14.0351 -14.0346
   -13.5444 -13.1505 -13.1504 -13.0760 -12.9113 -12.9093 -12.5771 -12.2171
   -12.2156 -11.7040 -11.5841 -11.5828 -11.0922 -10.8196 -10.8185  -9.4934
    -9.3542  -9.3535  -9.2442  -9.2335  -9.2334  -9.2206  -9.0142  -9.0140
    -8.9584  -8.9549  -8.8489  -8.6863  -8.6844  -7.9630  -7.8816  -7.8282
    -7.6250  -7.6242  -7.5262  -7.5254  -6.9615  -6.8492  -6.8482  -6.8188
    -6.7868  -6.7818  -6.7121  -6.7088  -6.6063  -6.6055  -6.5754  -6.5726
    -6.5721  -6.5245  -6.4314  -6.3674  -6.3664  -5.5954  -5.5942  -5.0188
    -4.9559  -4.8751  -4.8749  -4.7969  -4.7655  -4.7329  -4.7326  -4.5409
    -4.5391  -4.4567  -3.8565  -3.8559  -3.8020  -3.8017  -3.7917  -3.6312
    -3.6300  -3.3731  -1.8879  -1.8329  -1.8326  -1.7218  -1.7203  -1.1964
    -0.4599  -0.4424   0.9058   0.9424   0.9430   1.1072   1.1078   1.4975
     2.4913   2.7864   2.7876   2.8308   2.9461   2.9469   3.3900   3.6051
     3.6078   3.7277   3.7314   3.7491   3.8955   4.2367

     occupation numbers 
     1.0000   1.0000   1.0000   1.0000   1.0000   1.0000   1.0000   1.0000
     1.0000   1.0000   1.0000   1.0000   1.0000   1.0000   1.0000   1.0000
     1.0000   1.0000   1.0000   1.0000   1.0000   1.0000   1.0000   1.0000
     1.0000   1.0000   1.0000   1.0000   1.0000   1.0000   1.0000   1.0000
     1.0000   1.0000   1.0000   1.0000   1.0000   1.0000   1.0000   1.0000
     1.0000   1.0000   1.0000   1.0000   1.0000   1.0000   1.0000   1.0000
     1.0000   1.0000   1.0000   1.0000   1.0000   1.0000   1.0000   1.0000
     1.0000   1.0000   1.0000   1.0000   1.0000   1.0000   1.0000   1.0000
     1.0000   1.0000   1.0000   1.0000   1.0000   1.0000   1.0000   1.0000
     1.0000   1.0000   1.0000   1.0000   1.0000   1.0000   1.0000   1.0000
     1.0000   1.0000   1.0000   1.0000   1.0000   1.0000   1.0000   1.0000
     1.0000   1.0000   1.0000   1.0000   1.0000   1.0000   1.0000   1.0000
     1.0000   1.0000   1.0000   1.0000   1.0000   1.0000   1.0000   1.0000
     0.0000   0.0000   0.0000   0.0000   0.0000   0.0000   0.0000   0.0000
     0.0000   0.0000   0.0000   0.0000   0.0000   0.0000   0.0000   0.0000
     0.0000   0.0000   0.0000   0.0000   0.0000   0.0000

     the Fermi energy is    -0.8505 ev

!    total energy              =    -734.76034826 Ry
     Harris-Foulkes estimate   =    -734.76034845 Ry
     estimated scf accuracy    <       0.00000033 Ry

     The total energy is the sum of the following terms:

     one-electron contribution =   -2489.72108341 Ry
     hartree contribution      =    1300.52435188 Ry
     xc contribution           =    -275.92823882 Ry
     ewald contribution        =     730.36494985 Ry
     smearing contrib. (-TS)   =      -0.00032776 Ry

     total magnetization       =     1.00 Bohr mag/cell
     absolute magnetization    =     1.07 Bohr mag/cell

     convergence has been achieved in  27 iterations

     Writing output data file cobre-bridge-2.8.save/

     init_run     :     72.94s CPU     74.30s WALL (       1 calls)
     electrons    :   2760.04s CPU   2808.98s WALL (       1 calls)

     Called by init_run:
     wfcinit      :     43.30s CPU     43.60s WALL (       1 calls)
     wfcinit:atom :      0.06s CPU      0.08s WALL (       2 calls)
     wfcinit:wfcr :     42.87s CPU     43.08s WALL (       2 calls)
     potinit      :     12.36s CPU     12.78s WALL (       1 calls)
     hinit0       :      8.38s CPU      8.43s WALL (       1 calls)

     Called by electrons:
     c_bands      :   1723.69s CPU   1732.42s WALL (      27 calls)
     sum_band     :    599.71s CPU    616.53s WALL (      27 calls)
     v_of_rho     :    210.86s CPU    219.99s WALL (      28 calls)
     v_h          :      2.22s CPU      2.29s WALL (      28 calls)
     v_xc         :    208.64s CPU    217.70s WALL (      28 calls)
     newd         :    221.65s CPU    236.45s WALL (      28 calls)
     mix_rho      :     12.51s CPU     12.71s WALL (      27 calls)

     Called by c_bands:
     init_us_2    :      5.14s CPU      5.19s WALL (     110 calls)
     cegterg      :   1709.88s CPU   1718.53s WALL (      54 calls)

     Called by sum_band:
     sum_band:bec :      0.04s CPU      0.04s WALL (      54 calls)
     addusdens    :    374.64s CPU    390.16s WALL (      27 calls)

     Called by *egterg:
     h_psi        :    897.73s CPU    903.85s WALL (     203 calls)
     s_psi        :    299.34s CPU    299.49s WALL (     203 calls)
     g_psi        :      0.92s CPU      0.92s WALL (     147 calls)
     cdiaghg      :     12.61s CPU     12.62s WALL (     201 calls)
     cegterg:over :    219.25s CPU    219.35s WALL (     147 calls)
     cegterg:upda :    123.73s CPU    124.42s WALL (     147 calls)
     cegterg:last :     93.36s CPU     93.38s WALL (      54 calls)

     Called by h_psi:
     h_psi:pot    :    896.70s CPU    901.67s WALL (     203 calls)
     h_psi:calbec :    302.87s CPU    303.03s WALL (     203 calls)
     vloc_psi     :    295.05s CPU    299.75s WALL (     203 calls)
     add_vuspsi   :    298.78s CPU    298.89s WALL (     203 calls)

     General routines
     calbec       :    436.10s CPU    436.34s WALL (     257 calls)
     fft          :    131.40s CPU    135.21s WALL (    2094 calls)
     ffts         :      2.10s CPU      2.15s WALL (     110 calls)
     fftw         :    316.09s CPU    321.26s WALL (   37810 calls)
     interpolate  :      4.97s CPU      5.11s WALL (      56 calls)

     Parallel routines
     fft_scatt_xy :     78.05s CPU     78.99s WALL (   40014 calls)
     fft_scatt_yz :    161.17s CPU    167.96s WALL (   40014 calls)

     PWSCF        :  47m14.28s CPU  48m 4.98s WALL


   This run was terminated on:   9:48: 0   5Sep2022            

=------------------------------------------------------------------------------=
   JOB DONE.
=------------------------------------------------------------------------------=
