
     Program PWSCF v.6.4.1 starts on  5Sep2022 at  9:48: 0 

     This program is part of the open-source Quantum ESPRESSO suite
     for quantum simulation of materials; please cite
         "P. Giannozzi et al., J. Phys.:Condens. Matter 21 395502 (2009);
         "P. Giannozzi et al., J. Phys.:Condens. Matter 29 465901 (2017);
          URL http://www.quantum-espresso.org", 
     in publications or presentations arising from this work. More details at
     http://www.quantum-espresso.org/quote

     Parallel version (MPI), running on     6 processors

     MPI processes distributed on     1 nodes
     R & G space division:  proc/nbgrp/npool/nimage =       6
     Reading input from distance-2.6.in

     Current dimensions of program PWSCF are:
     Max number of different atomic species (ntypx) = 10
     Max number of k-points (npk) =  40000
     Max angular momentum in pseudopotentials (lmaxx) =  3

     IMPORTANT: XC functional enforced from input :
     Exchange-correlation      = RVV10 ( 1  4 13  4 3 0)
     Any further DFT definition will be discarded
     Please, verify this is what you really want

               file H.pbe-rrkjus.UPF: wavefunction(s)  1S renormalized
               file Cu.pbe-dn-rrkjus_psl.1.0.0.UPF: wavefunction(s)  3D renormalized

     Subspace diagonalization in iterative solution of the eigenvalue problem:
     a serial algorithm will be used


     Parallelization info
     --------------------
     sticks:   dense  smooth     PW     G-vecs:    dense   smooth      PW
     Min        3051    1746    432               270999   117096   14629
     Max        3053    1747    437               271001   117099   14630
     Sum       18313   10477   2611              1626001   702581   87777



     bravais-lattice index     =            4
     lattice parameter (alat)  =      23.2937  a.u.
     unit-cell volume          =    8879.8548 (a.u.)^3
     number of atoms/cell      =           52
     number of atomic types    =            3
     number of electrons       =       209.00
     number of Kohn-Sham states=          126
     kinetic-energy cutoff     =      70.0000  Ry
     charge density cutoff     =     490.0000  Ry
     convergence threshold     =      1.0E-06
     mixing beta               =       0.7000
     number of iterations used =            8  plain     mixing
     Exchange-correlation      = RVV10 ( 1  4 13  4 3 0)

     celldm(1)=  23.293684  celldm(2)=   0.000000  celldm(3)=   0.811261
     celldm(4)=   0.000000  celldm(5)=   0.000000  celldm(6)=   0.000000

     crystal axes: (cart. coord. in units of alat)
               a(1) = (   1.000000   0.000000   0.000000 )  
               a(2) = (  -0.500000   0.866025   0.000000 )  
               a(3) = (   0.000000   0.000000   0.811261 )  

     reciprocal axes: (cart. coord. in units 2 pi/alat)
               b(1) = (  1.000000  0.577350 -0.000000 )  
               b(2) = (  0.000000  1.154701  0.000000 )  
               b(3) = (  0.000000 -0.000000  1.232649 )  


     PseudoPot. # 1 for H  read from file:
     /home/cristian/Escritorio/Proyecto_Grafeno/pseudopotenciales/H.pbe-rrkjus.UPF
     MD5 check sum: 7cc9d459525c9a0585f487a71c3c9563
     Pseudo is Ultrasoft, Zval =  1.0
     Generated by new atomic code, or converted to UPF format
     Using radial grid of 1061 points,  2 beta functions with: 
                l(1) =   0
                l(2) =   0
     Q(r) pseudized with 0 coefficients 


     PseudoPot. # 2 for C  read from file:
     /home/cristian/Escritorio/Proyecto_Grafeno/pseudopotenciales/C.pbe-n-rrkjus_psl.1.0.0.UPF
     MD5 check sum: 1fdd950c42eb37d8afe3dd2f8d12311e
     Pseudo is Ultrasoft + core correction, Zval =  4.0
     Generated using "atomic" code by A. Dal Corso v.6.3MaX
     Using radial grid of 1073 points,  4 beta functions with: 
                l(1) =   0
                l(2) =   0
                l(3) =   1
                l(4) =   1
     Q(r) pseudized with 0 coefficients 


     PseudoPot. # 3 for Cu read from file:
     /home/cristian/Escritorio/Proyecto_Grafeno/pseudopotenciales/Cu.pbe-dn-rrkjus_psl.1.0.0.UPF
     MD5 check sum: ba3d6c84e19846e79d48cdc68ff7152b
     Pseudo is Ultrasoft + core correction, Zval = 11.0
     Generated using "atomic" code by A. Dal Corso v.6.3
     Using radial grid of 1199 points,  6 beta functions with: 
                l(1) =   0
                l(2) =   0
                l(3) =   1
                l(4) =   1
                l(5) =   2
                l(6) =   2
     Q(r) pseudized with 0 coefficients 


     vdW kernel table read from file rVV10_kernel_table
     MD5 check sum: b8e2538accc0c0b3206b45ba4daaba6c

     atomic species   valence    mass     pseudopotential
        H              1.00     1.00794     H ( 1.00)
        C              4.00    12.01070     C ( 1.00)
        Cu            11.00    63.54600     Cu( 1.00)

     Starting magnetic structure 
     atomic species   magnetization
        H            0.500
        C            0.300
        Cu           0.800

     No symmetry found


                                    s                        frac. trans.

      isym =  1     identity                                     

 cryst.   s( 1) = (     1          0          0      )
                  (     0          1          0      )
                  (     0          0          1      )

 cart.    s( 1) = (  1.0000000  0.0000000  0.0000000 )
                  (  0.0000000  1.0000000  0.0000000 )
                  (  0.0000000  0.0000000  1.0000000 )


     point group C_1 (1)    
     there are  1 classes
     the character table:

       E    
A      1.00

     the symmetry operations in each class and the name of the first element:

     E        1
          identity                                               

   Cartesian axes

     site n.     atom                  positions (alat units)
         1           H   tau(   1) = (   0.2500000   0.4907477   0.2109279  )
         2           H   tau(   2) = (   0.2500000   0.4907477   0.2719406  )
         3           C   tau(   3) = (   0.0000000   0.0000000   0.0000000  )
         4           C   tau(   4) = (   0.0000000   0.1154701   0.0000000  )
         5           C   tau(   5) = (  -0.1000000   0.1732051   0.0000000  )
         6           C   tau(   6) = (  -0.1000000   0.2886751   0.0000000  )
         7           C   tau(   7) = (  -0.2000000   0.3464102   0.0000000  )
         8           C   tau(   8) = (  -0.2000000   0.4618802   0.0000000  )
         9           C   tau(   9) = (  -0.3000000   0.5196152   0.0000000  )
        10           C   tau(  10) = (  -0.3000000   0.6350853   0.0000000  )
        11           C   tau(  11) = (  -0.4000000   0.6928203   0.0000000  )
        12           C   tau(  12) = (  -0.4000000   0.8082904   0.0000000  )
        13           C   tau(  13) = (   0.2000000   0.0000000   0.0000000  )
        14           C   tau(  14) = (   0.2000000   0.1154701   0.0000000  )
        15           C   tau(  15) = (   0.1000000   0.1732051   0.0000000  )
        16           C   tau(  16) = (   0.1000000   0.2886751   0.0000000  )
        17           C   tau(  17) = (   0.0000000   0.3464102   0.0000000  )
        18           C   tau(  18) = (   0.0000000   0.4618802   0.0000000  )
        19           C   tau(  19) = (  -0.1000000   0.5196152   0.0000000  )
        20           C   tau(  20) = (  -0.1000000   0.6350853   0.0000000  )
        21           C   tau(  21) = (  -0.2000000   0.6928203   0.0000000  )
        22           C   tau(  22) = (  -0.2000000   0.8082904   0.0000000  )
        23           C   tau(  23) = (   0.4000000   0.0000000   0.0000000  )
        24           C   tau(  24) = (   0.4000000   0.1154701   0.0000000  )
        25           C   tau(  25) = (   0.3000000   0.1732051   0.0000000  )
        26           C   tau(  26) = (   0.3000000   0.2886751   0.0000000  )
        27           C   tau(  27) = (   0.2000000   0.3464102   0.0000000  )
        28           Cu  tau(  28) = (   0.2000000   0.4618802   0.0000000  )
        29           C   tau(  29) = (   0.1000000   0.5196152   0.0000000  )
        30           C   tau(  30) = (   0.1000000   0.6350853   0.0000000  )
        31           C   tau(  31) = (   0.0000000   0.6928203   0.0000000  )
        32           C   tau(  32) = (   0.0000000   0.8082904   0.0000000  )
        33           C   tau(  33) = (   0.6000000   0.0000000   0.0000000  )
        34           C   tau(  34) = (   0.6000000   0.1154701   0.0000000  )
        35           C   tau(  35) = (   0.5000000   0.1732051   0.0000000  )
        36           C   tau(  36) = (   0.5000000   0.2886751   0.0000000  )
        37           C   tau(  37) = (   0.4000000   0.3464102   0.0000000  )
        38           C   tau(  38) = (   0.4000000   0.4618802   0.0000000  )
        39           C   tau(  39) = (   0.3000000   0.5196152   0.0000000  )
        40           C   tau(  40) = (   0.3000000   0.6350853   0.0000000  )
        41           C   tau(  41) = (   0.2000000   0.6928203   0.0000000  )
        42           C   tau(  42) = (   0.2000000   0.8082904   0.0000000  )
        43           C   tau(  43) = (   0.8000000   0.0000000   0.0000000  )
        44           C   tau(  44) = (   0.8000000   0.1154701   0.0000000  )
        45           C   tau(  45) = (   0.7000000   0.1732051   0.0000000  )
        46           C   tau(  46) = (   0.7000000   0.2886751   0.0000000  )
        47           C   tau(  47) = (   0.6000000   0.3464102   0.0000000  )
        48           C   tau(  48) = (   0.6000000   0.4618802   0.0000000  )
        49           C   tau(  49) = (   0.5000000   0.5196152   0.0000000  )
        50           C   tau(  50) = (   0.5000000   0.6350853   0.0000000  )
        51           C   tau(  51) = (   0.4000000   0.6928203   0.0000000  )
        52           C   tau(  52) = (   0.4000000   0.8082904   0.0000000  )

   Crystallographic axes

     site n.     atom                  positions (cryst. coord.)
         1           H   tau(   1) = (  0.5333333  0.5666667  0.2600000  )
         2           H   tau(   2) = (  0.5333333  0.5666667  0.3352072  )
         3           C   tau(   3) = (  0.0000000  0.0000000  0.0000000  )
         4           C   tau(   4) = (  0.0666667  0.1333333  0.0000000  )
         5           C   tau(   5) = (  0.0000000  0.2000000  0.0000000  )
         6           C   tau(   6) = (  0.0666667  0.3333333  0.0000000  )
         7           C   tau(   7) = (  0.0000000  0.4000000  0.0000000  )
         8           C   tau(   8) = (  0.0666667  0.5333333  0.0000000  )
         9           C   tau(   9) = (  0.0000000  0.6000000  0.0000000  )
        10           C   tau(  10) = (  0.0666667  0.7333333  0.0000000  )
        11           C   tau(  11) = (  0.0000000  0.8000000  0.0000000  )
        12           C   tau(  12) = (  0.0666667  0.9333333  0.0000000  )
        13           C   tau(  13) = (  0.2000000  0.0000000  0.0000000  )
        14           C   tau(  14) = (  0.2666667  0.1333333  0.0000000  )
        15           C   tau(  15) = (  0.2000000  0.2000000  0.0000000  )
        16           C   tau(  16) = (  0.2666667  0.3333333  0.0000000  )
        17           C   tau(  17) = (  0.2000000  0.4000000  0.0000000  )
        18           C   tau(  18) = (  0.2666667  0.5333333  0.0000000  )
        19           C   tau(  19) = (  0.2000000  0.6000000  0.0000000  )
        20           C   tau(  20) = (  0.2666667  0.7333333  0.0000000  )
        21           C   tau(  21) = (  0.2000000  0.8000000  0.0000000  )
        22           C   tau(  22) = (  0.2666667  0.9333333  0.0000000  )
        23           C   tau(  23) = (  0.4000000  0.0000000  0.0000000  )
        24           C   tau(  24) = (  0.4666667  0.1333333  0.0000000  )
        25           C   tau(  25) = (  0.4000000  0.2000000  0.0000000  )
        26           C   tau(  26) = (  0.4666667  0.3333333  0.0000000  )
        27           C   tau(  27) = (  0.4000000  0.4000000  0.0000000  )
        28           Cu  tau(  28) = (  0.4666667  0.5333333  0.0000000  )
        29           C   tau(  29) = (  0.4000000  0.6000000  0.0000000  )
        30           C   tau(  30) = (  0.4666667  0.7333333  0.0000000  )
        31           C   tau(  31) = (  0.4000000  0.8000000  0.0000000  )
        32           C   tau(  32) = (  0.4666667  0.9333333  0.0000000  )
        33           C   tau(  33) = (  0.6000000  0.0000000  0.0000000  )
        34           C   tau(  34) = (  0.6666667  0.1333333  0.0000000  )
        35           C   tau(  35) = (  0.6000000  0.2000000  0.0000000  )
        36           C   tau(  36) = (  0.6666667  0.3333333  0.0000000  )
        37           C   tau(  37) = (  0.6000000  0.4000000  0.0000000  )
        38           C   tau(  38) = (  0.6666667  0.5333333  0.0000000  )
        39           C   tau(  39) = (  0.6000000  0.6000000  0.0000000  )
        40           C   tau(  40) = (  0.6666667  0.7333333  0.0000000  )
        41           C   tau(  41) = (  0.6000000  0.8000000  0.0000000  )
        42           C   tau(  42) = (  0.6666667  0.9333333  0.0000000  )
        43           C   tau(  43) = (  0.8000000  0.0000000  0.0000000  )
        44           C   tau(  44) = (  0.8666667  0.1333333  0.0000000  )
        45           C   tau(  45) = (  0.8000000  0.2000000  0.0000000  )
        46           C   tau(  46) = (  0.8666667  0.3333333  0.0000000  )
        47           C   tau(  47) = (  0.8000000  0.4000000  0.0000000  )
        48           C   tau(  48) = (  0.8666667  0.5333333  0.0000000  )
        49           C   tau(  49) = (  0.8000000  0.6000000  0.0000000  )
        50           C   tau(  50) = (  0.8666667  0.7333333  0.0000000  )
        51           C   tau(  51) = (  0.8000000  0.8000000  0.0000000  )
        52           C   tau(  52) = (  0.8666667  0.9333333  0.0000000  )

     number of k points=     1  Marzari-Vanderbilt smearing, width (Ry)=  0.0010
                       cart. coord. in units 2pi/alat
        k(    1) = (   0.0000000   0.0000000   0.0000000), wk =   1.0000000

                       cryst. coord.
        k(    1) = (   0.0000000   0.0000000   0.0000000), wk =   1.0000000

     Dense  grid:  1626001 G-vectors     FFT dimensions: ( 180, 180, 135)

     Smooth grid:   702581 G-vectors     FFT dimensions: ( 125, 125, 108)

     Dynamical RAM for                 wfc:      28.14 MB

     Dynamical RAM for     wfc (w. buffer):      84.42 MB

     Dynamical RAM for           str. fact:      12.41 MB

     Dynamical RAM for           local pot:       0.00 MB

     Dynamical RAM for          nlocal pot:      92.46 MB

     Dynamical RAM for                qrad:      19.73 MB

     Dynamical RAM for          rho,v,vnew:      58.92 MB

     Dynamical RAM for               rhoin:      19.64 MB

     Dynamical RAM for            rho*nmix:     132.32 MB

     Dynamical RAM for           G-vectors:      16.40 MB

     Dynamical RAM for          h,s,v(r/c):      11.63 MB

     Dynamical RAM for          <psi|beta>:       0.80 MB

     Dynamical RAM for                 psi:     112.56 MB

     Dynamical RAM for                hpsi:     112.56 MB

     Dynamical RAM for                spsi:     112.56 MB

     Dynamical RAM for      wfcinit/wfcrot:      93.45 MB

     Dynamical RAM for           addusdens:     975.89 MB

     Estimated static dynamical RAM per process >     486.96 MB

     Estimated max dynamical RAM per process >       1.43 GB

     Estimated total dynamical RAM >       8.57 GB
     Generating pointlists ...
     new r_m :   0.0252 (alat units)  0.5862 (a.u.) for type    1
     new r_m :   0.0476 (alat units)  1.1095 (a.u.) for type    2
     new r_m :   0.0476 (alat units)  1.1095 (a.u.) for type    3

     Check: negative core charge=   -0.000002

     Initial potential from superposition of free atoms

     starting charge  208.80532, renormalised to  209.00000

     negative rho (up, down):  6.245E-05 1.093E-02


---------------------------------------------------------------------------------
Carrying out rVV10 run using the following parameters:
Nqs =      20    Nr_points =    1024   r_max =   100.000
b_value =  6.30000    beta =  0.00901
     q_mesh =  0.00010000  0.00030000  0.00058939  0.00100810
               0.00161396  0.00249058  0.00375900  0.00559430
               0.00824984  0.01209221  0.01765183  0.02569619
               0.03733578  0.05417739  0.07854596  0.11380545
               0.16482331  0.23864234  0.34545298  0.50000000

Gradients computed in Reciprocal space

---------------------------------------------------------------------------------


     Starting wfcs are  207 randomized atomic wfcs

     total cpu time spent up to now is       76.1 secs

     Self-consistent Calculation

     iteration #  1     ecut=    70.00 Ry     beta= 0.70
     Davidson diagonalization with overlap
     ethr =  1.00E-02,  avg # of iterations =  4.5

     negative rho (up, down):  1.527E-04 1.143E-02

     total cpu time spent up to now is      211.4 secs

     total energy              =    -728.19613014 Ry
     Harris-Foulkes estimate   =    -734.85435964 Ry
     estimated scf accuracy    <      13.35368566 Ry

     total magnetization       =     6.79 Bohr mag/cell
     absolute magnetization    =     7.20 Bohr mag/cell

     iteration #  2     ecut=    70.00 Ry     beta= 0.70
     Davidson diagonalization with overlap
     ethr =  6.39E-03,  avg # of iterations =  4.0

     negative rho (up, down):  1.726E-04 1.002E-02

     total cpu time spent up to now is      338.5 secs

     total energy              =    -729.90505706 Ry
     Harris-Foulkes estimate   =    -743.16405404 Ry
     estimated scf accuracy    <      32.68804768 Ry

     total magnetization       =     3.00 Bohr mag/cell
     absolute magnetization    =     3.27 Bohr mag/cell

     iteration #  3     ecut=    70.00 Ry     beta= 0.70
     Davidson diagonalization with overlap
     ethr =  6.39E-03,  avg # of iterations =  5.0

     negative rho (up, down):  2.068E-04 8.101E-03

     total cpu time spent up to now is      449.7 secs

     total energy              =    -732.59620436 Ry
     Harris-Foulkes estimate   =    -735.69476532 Ry
     estimated scf accuracy    <       8.11952476 Ry

     total magnetization       =     1.00 Bohr mag/cell
     absolute magnetization    =     1.61 Bohr mag/cell

     iteration #  4     ecut=    70.00 Ry     beta= 0.70
     Davidson diagonalization with overlap
     ethr =  3.88E-03,  avg # of iterations =  4.0

     negative rho (up, down):  2.540E-04 7.171E-03

     total cpu time spent up to now is      559.9 secs

     total energy              =    -733.70436778 Ry
     Harris-Foulkes estimate   =    -735.24326005 Ry
     estimated scf accuracy    <       6.59198878 Ry

     total magnetization       =     3.00 Bohr mag/cell
     absolute magnetization    =     3.15 Bohr mag/cell

     iteration #  5     ecut=    70.00 Ry     beta= 0.70
     Davidson diagonalization with overlap
     ethr =  3.15E-03,  avg # of iterations =  2.0

     negative rho (up, down):  2.990E-04 1.093E-02

     total cpu time spent up to now is      657.2 secs

     total energy              =    -734.57310503 Ry
     Harris-Foulkes estimate   =    -734.93880560 Ry
     estimated scf accuracy    <       1.30745043 Ry

     total magnetization       =     1.00 Bohr mag/cell
     absolute magnetization    =     1.41 Bohr mag/cell

     iteration #  6     ecut=    70.00 Ry     beta= 0.70
     Davidson diagonalization with overlap
     ethr =  6.26E-04,  avg # of iterations =  4.0

     negative rho (up, down):  3.750E-04 1.482E-02

     total cpu time spent up to now is      762.3 secs

     total energy              =    -734.69995009 Ry
     Harris-Foulkes estimate   =    -734.80475725 Ry
     estimated scf accuracy    <       0.33269932 Ry

     total magnetization       =     1.00 Bohr mag/cell
     absolute magnetization    =     1.27 Bohr mag/cell

     iteration #  7     ecut=    70.00 Ry     beta= 0.70
     Davidson diagonalization with overlap
     ethr =  1.59E-04,  avg # of iterations = 11.0

     negative rho (up, down):  5.552E-04 5.443E-03

     total cpu time spent up to now is      874.4 secs

     total energy              =    -734.73563135 Ry
     Harris-Foulkes estimate   =    -734.79295168 Ry
     estimated scf accuracy    <       0.21744926 Ry

     total magnetization       =     1.00 Bohr mag/cell
     absolute magnetization    =     1.20 Bohr mag/cell

     iteration #  8     ecut=    70.00 Ry     beta= 0.70
     Davidson diagonalization with overlap
     ethr =  1.04E-04,  avg # of iterations =  3.0

     negative rho (up, down):  5.963E-04 2.915E-03

     total cpu time spent up to now is      972.5 secs

     total energy              =    -734.75571552 Ry
     Harris-Foulkes estimate   =    -734.76120290 Ry
     estimated scf accuracy    <       0.04044860 Ry

     total magnetization       =     1.00 Bohr mag/cell
     absolute magnetization    =     1.16 Bohr mag/cell

     iteration #  9     ecut=    70.00 Ry     beta= 0.70
     Davidson diagonalization with overlap
     ethr =  1.94E-05,  avg # of iterations =  8.5

     negative rho (up, down):  6.421E-04 3.989E-03

     total cpu time spent up to now is     1075.6 secs

     total energy              =    -734.75740108 Ry
     Harris-Foulkes estimate   =    -734.76097889 Ry
     estimated scf accuracy    <       0.03038060 Ry

     total magnetization       =     1.00 Bohr mag/cell
     absolute magnetization    =     1.14 Bohr mag/cell

     iteration # 10     ecut=    70.00 Ry     beta= 0.70
     Davidson diagonalization with overlap
     ethr =  1.45E-05,  avg # of iterations =  1.5

     negative rho (up, down):  6.557E-04 3.791E-03

     total cpu time spent up to now is     1171.6 secs

     total energy              =    -734.75875353 Ry
     Harris-Foulkes estimate   =    -734.75939542 Ry
     estimated scf accuracy    <       0.00320448 Ry

     total magnetization       =     1.00 Bohr mag/cell
     absolute magnetization    =     1.11 Bohr mag/cell

     iteration # 11     ecut=    70.00 Ry     beta= 0.70
     Davidson diagonalization with overlap
     ethr =  1.53E-06,  avg # of iterations =  4.0

     negative rho (up, down):  6.543E-04 4.409E-03

     total cpu time spent up to now is     1281.8 secs

     total energy              =    -734.75857881 Ry
     Harris-Foulkes estimate   =    -734.75988153 Ry
     estimated scf accuracy    <       0.02084014 Ry

     total magnetization       =     1.00 Bohr mag/cell
     absolute magnetization    =     1.11 Bohr mag/cell

     iteration # 12     ecut=    70.00 Ry     beta= 0.70
     Davidson diagonalization with overlap
     ethr =  1.53E-06,  avg # of iterations =  2.0

     negative rho (up, down):  6.502E-04 2.969E-03

     total cpu time spent up to now is     1378.1 secs

     total energy              =    -734.75905710 Ry
     Harris-Foulkes estimate   =    -734.75934772 Ry
     estimated scf accuracy    <       0.00355861 Ry

     total magnetization       =     1.00 Bohr mag/cell
     absolute magnetization    =     1.09 Bohr mag/cell

     iteration # 13     ecut=    70.00 Ry     beta= 0.70
     Davidson diagonalization with overlap
     ethr =  1.53E-06,  avg # of iterations =  1.5

     negative rho (up, down):  6.388E-04 2.025E-03

     total cpu time spent up to now is     1474.0 secs

     total energy              =    -734.75921625 Ry
     Harris-Foulkes estimate   =    -734.75922824 Ry
     estimated scf accuracy    <       0.00011484 Ry

     total magnetization       =     1.00 Bohr mag/cell
     absolute magnetization    =     1.08 Bohr mag/cell

     iteration # 14     ecut=    70.00 Ry     beta= 0.70
     Davidson diagonalization with overlap
     ethr =  5.49E-08,  avg # of iterations =  3.0

     negative rho (up, down):  6.291E-04 1.616E-03

     total cpu time spent up to now is     1583.1 secs

     total energy              =    -734.75923647 Ry
     Harris-Foulkes estimate   =    -734.75924296 Ry
     estimated scf accuracy    <       0.00003075 Ry

     total magnetization       =     1.00 Bohr mag/cell
     absolute magnetization    =     1.08 Bohr mag/cell

     iteration # 15     ecut=    70.00 Ry     beta= 0.70
     Davidson diagonalization with overlap
     ethr =  1.47E-08,  avg # of iterations =  3.0

     negative rho (up, down):  6.273E-04 1.608E-03

     total cpu time spent up to now is     1692.1 secs

     total energy              =    -734.75924412 Ry
     Harris-Foulkes estimate   =    -734.75924383 Ry
     estimated scf accuracy    <       0.00004527 Ry

     total magnetization       =     1.00 Bohr mag/cell
     absolute magnetization    =     1.07 Bohr mag/cell

     iteration # 16     ecut=    70.00 Ry     beta= 0.70
     Davidson diagonalization with overlap
     ethr =  1.47E-08,  avg # of iterations =  1.0

     negative rho (up, down):  6.268E-04 1.607E-03

     total cpu time spent up to now is     1787.9 secs

     total energy              =    -734.75924435 Ry
     Harris-Foulkes estimate   =    -734.75924526 Ry
     estimated scf accuracy    <       0.00002514 Ry

     total magnetization       =     1.00 Bohr mag/cell
     absolute magnetization    =     1.07 Bohr mag/cell

     iteration # 17     ecut=    70.00 Ry     beta= 0.70
     Davidson diagonalization with overlap
     ethr =  1.20E-08,  avg # of iterations =  1.0

     negative rho (up, down):  6.253E-04 1.623E-03

     total cpu time spent up to now is     1883.9 secs

     total energy              =    -734.75924508 Ry
     Harris-Foulkes estimate   =    -734.75924569 Ry
     estimated scf accuracy    <       0.00000571 Ry

     total magnetization       =     1.00 Bohr mag/cell
     absolute magnetization    =     1.07 Bohr mag/cell

     iteration # 18     ecut=    70.00 Ry     beta= 0.70
     Davidson diagonalization with overlap
     ethr =  2.73E-09,  avg # of iterations =  2.5

     negative rho (up, down):  6.254E-04 1.627E-03

     total cpu time spent up to now is     1988.4 secs

     total energy              =    -734.75924572 Ry
     Harris-Foulkes estimate   =    -734.75924647 Ry
     estimated scf accuracy    <       0.00000497 Ry

     total magnetization       =     1.00 Bohr mag/cell
     absolute magnetization    =     1.07 Bohr mag/cell

     iteration # 19     ecut=    70.00 Ry     beta= 0.70
     Davidson diagonalization with overlap
     ethr =  2.38E-09,  avg # of iterations =  2.0

     negative rho (up, down):  6.250E-04 1.633E-03

     total cpu time spent up to now is     2086.9 secs

     total energy              =    -734.75924616 Ry
     Harris-Foulkes estimate   =    -734.75924626 Ry
     estimated scf accuracy    <       0.00000645 Ry

     total magnetization       =     1.00 Bohr mag/cell
     absolute magnetization    =     1.07 Bohr mag/cell

     iteration # 20     ecut=    70.00 Ry     beta= 0.70
     Davidson diagonalization with overlap
     ethr =  2.38E-09,  avg # of iterations =  1.0

     negative rho (up, down):  6.251E-04 1.631E-03

     total cpu time spent up to now is     2182.8 secs

     total energy              =    -734.75924631 Ry
     Harris-Foulkes estimate   =    -734.75924631 Ry
     estimated scf accuracy    <       0.00000417 Ry

     total magnetization       =     1.00 Bohr mag/cell
     absolute magnetization    =     1.07 Bohr mag/cell

     iteration # 21     ecut=    70.00 Ry     beta= 0.70
     Davidson diagonalization with overlap
     ethr =  1.99E-09,  avg # of iterations =  1.0

     negative rho (up, down):  6.249E-04 1.636E-03

     total cpu time spent up to now is     2278.8 secs

     total energy              =    -734.75924635 Ry
     Harris-Foulkes estimate   =    -734.75924640 Ry
     estimated scf accuracy    <       0.00000311 Ry

     total magnetization       =     1.00 Bohr mag/cell
     absolute magnetization    =     1.06 Bohr mag/cell

     iteration # 22     ecut=    70.00 Ry     beta= 0.70
     Davidson diagonalization with overlap
     ethr =  1.49E-09,  avg # of iterations =  1.0

     negative rho (up, down):  6.249E-04 1.636E-03

     total cpu time spent up to now is     2374.7 secs

     total energy              =    -734.75924637 Ry
     Harris-Foulkes estimate   =    -734.75924641 Ry
     estimated scf accuracy    <       0.00000196 Ry

     total magnetization       =     1.00 Bohr mag/cell
     absolute magnetization    =     1.06 Bohr mag/cell

     iteration # 23     ecut=    70.00 Ry     beta= 0.70
     Davidson diagonalization with overlap
     ethr =  9.38E-10,  avg # of iterations =  1.0

     negative rho (up, down):  6.251E-04 1.629E-03

     total cpu time spent up to now is     2470.6 secs

     total energy              =    -734.75924638 Ry
     Harris-Foulkes estimate   =    -734.75924640 Ry
     estimated scf accuracy    <       0.00000167 Ry

     total magnetization       =     1.00 Bohr mag/cell
     absolute magnetization    =     1.06 Bohr mag/cell

     iteration # 24     ecut=    70.00 Ry     beta= 0.70
     Davidson diagonalization with overlap
     ethr =  8.01E-10,  avg # of iterations =  1.5

     negative rho (up, down):  6.251E-04 1.629E-03

     total cpu time spent up to now is     2566.8 secs

     total energy              =    -734.75924640 Ry
     Harris-Foulkes estimate   =    -734.75924642 Ry
     estimated scf accuracy    <       0.00000118 Ry

     total magnetization       =     1.00 Bohr mag/cell
     absolute magnetization    =     1.06 Bohr mag/cell

     iteration # 25     ecut=    70.00 Ry     beta= 0.70
     Davidson diagonalization with overlap
     ethr =  5.67E-10,  avg # of iterations =  1.5

     negative rho (up, down):  6.251E-04 1.624E-03

     Magnetic moment per site:
     atom:    1    charge:    0.2112    magn:    0.0000    constr:    0.0000
     atom:    2    charge:    0.2119    magn:   -0.0000    constr:    0.0000
     atom:    3    charge:    1.7158    magn:    0.0017    constr:    0.0000
     atom:    4    charge:    1.7153    magn:    0.0019    constr:    0.0000
     atom:    5    charge:    1.7169    magn:   -0.0000    constr:    0.0000
     atom:    6    charge:    1.7146    magn:   -0.0000    constr:    0.0000
     atom:    7    charge:    1.7169    magn:   -0.0000    constr:    0.0000
     atom:    8    charge:    1.7153    magn:    0.0019    constr:    0.0000
     atom:    9    charge:    1.7158    magn:    0.0017    constr:    0.0000
     atom:   10    charge:    1.7170    magn:   -0.0009    constr:    0.0000
     atom:   11    charge:    1.7160    magn:    0.0006    constr:    0.0000
     atom:   12    charge:    1.7170    magn:   -0.0009    constr:    0.0000
     atom:   13    charge:    1.7160    magn:    0.0005    constr:    0.0000
     atom:   14    charge:    1.7168    magn:   -0.0009    constr:    0.0000
     atom:   15    charge:    1.7130    magn:    0.0072    constr:    0.0000
     atom:   16    charge:    1.7110    magn:    0.0141    constr:    0.0000
     atom:   17    charge:    1.7213    magn:    0.0028    constr:    0.0000
     atom:   18    charge:    1.7109    magn:    0.0141    constr:    0.0000
     atom:   19    charge:    1.7130    magn:    0.0072    constr:    0.0000
     atom:   20    charge:    1.7168    magn:   -0.0009    constr:    0.0000
     atom:   21    charge:    1.7160    magn:    0.0005    constr:    0.0000
     atom:   22    charge:    1.7170    magn:   -0.0009    constr:    0.0000
     atom:   23    charge:    1.7157    magn:    0.0015    constr:    0.0000
     atom:   24    charge:    1.7152    magn:    0.0016    constr:    0.0000
     atom:   25    charge:    1.7129    magn:    0.0068    constr:    0.0000
     atom:   26    charge:    1.7106    magn:    0.0127    constr:    0.0000
     atom:   27    charge:    1.8170    magn:    0.0773    constr:    0.0000
     atom:   28    charge:    7.0287    magn:    0.1546    constr:    0.0000
     atom:   29    charge:    1.8168    magn:    0.0773    constr:    0.0000
     atom:   30    charge:    1.7106    magn:    0.0126    constr:    0.0000
     atom:   31    charge:    1.7129    magn:    0.0068    constr:    0.0000
     atom:   32    charge:    1.7152    magn:    0.0016    constr:    0.0000
     atom:   33    charge:    1.7169    magn:   -0.0000    constr:    0.0000
     atom:   34    charge:    1.7153    magn:    0.0000    constr:    0.0000
     atom:   35    charge:    1.7169    magn:   -0.0000    constr:    0.0000
     atom:   36    charge:    1.7146    magn:   -0.0000    constr:    0.0000
     atom:   37    charge:    1.7213    magn:    0.0031    constr:    0.0000
     atom:   38    charge:    1.7107    magn:    0.0129    constr:    0.0000
     atom:   39    charge:    1.8189    magn:    0.0837    constr:    0.0000
     atom:   40    charge:    1.7107    magn:    0.0129    constr:    0.0000
     atom:   41    charge:    1.7213    magn:    0.0031    constr:    0.0000
     atom:   42    charge:    1.7146    magn:   -0.0000    constr:    0.0000
     atom:   43    charge:    1.7169    magn:    0.0000    constr:    0.0000
     atom:   44    charge:    1.7153    magn:    0.0000    constr:    0.0000
     atom:   45    charge:    1.7211    magn:   -0.0007    constr:    0.0000
     atom:   46    charge:    1.7153    magn:    0.0000    constr:    0.0000
     atom:   47    charge:    1.7169    magn:    0.0000    constr:    0.0000
     atom:   48    charge:    1.7153    magn:    0.0018    constr:    0.0000
     atom:   49    charge:    1.7130    magn:    0.0076    constr:    0.0000
     atom:   50    charge:    1.7168    magn:   -0.0010    constr:    0.0000
     atom:   51    charge:    1.7130    magn:    0.0076    constr:    0.0000
     atom:   52    charge:    1.7153    magn:    0.0018    constr:    0.0000

     total cpu time spent up to now is     2662.5 secs

     End of self-consistent calculation

 ------ SPIN UP ------------


          k = 0.0000 0.0000 0.0000 ( 87777 PWs)   bands (ev):

   -19.8513 -19.0104 -19.0075 -18.9139 -18.9129 -18.8519 -18.7771 -17.1801
   -17.1794 -17.1416 -17.0992 -17.0974 -16.8203 -16.3398 -16.3380 -16.1936
   -16.1926 -16.1706 -15.7806 -14.4380 -14.4353 -14.1398 -14.0443 -14.0437
   -13.5879 -13.1771 -13.1769 -13.0900 -12.9487 -12.9477 -12.6431 -12.3288
   -12.3284 -11.7247 -11.6193 -11.6191 -11.1984 -10.9507 -10.9491  -9.5354
    -9.3747  -9.3742  -9.2529  -9.2434  -9.2432  -9.2341  -9.1348  -9.1311
    -9.0720  -9.0711  -8.9755  -8.7282  -8.7275  -7.9816  -7.9069  -7.8525
    -7.6751  -7.6737  -7.5447  -7.5445  -7.0618  -6.8690  -6.8512  -6.8501
    -6.8283  -6.7890  -6.7264  -6.7236  -6.6295  -6.6283  -6.5842  -6.5777
    -6.5769  -6.5317  -6.4097  -6.4080  -6.3947  -5.6238  -5.6231  -5.0388
    -4.9897  -4.9667  -4.8961  -4.8959  -4.7712  -4.7351  -4.7346  -4.5518
    -4.5491  -4.4682  -3.8619  -3.8610  -3.8287  -3.8282  -3.7918  -3.6506
    -3.6486  -3.4063  -1.8926  -1.8359  -1.8355  -1.7458  -1.7432  -1.2323
    -0.8549  -0.8539   0.9017   0.9378   0.9387   1.0813   1.0835   1.4840
     2.4913   2.7827   2.7843   2.8290   2.9154   2.9182   3.3812   3.6072
     3.6099   3.7282   3.7318   3.7499   3.8966   4.2651

     occupation numbers 
     1.0000   1.0000   1.0000   1.0000   1.0000   1.0000   1.0000   1.0000
     1.0000   1.0000   1.0000   1.0000   1.0000   1.0000   1.0000   1.0000
     1.0000   1.0000   1.0000   1.0000   1.0000   1.0000   1.0000   1.0000
     1.0000   1.0000   1.0000   1.0000   1.0000   1.0000   1.0000   1.0000
     1.0000   1.0000   1.0000   1.0000   1.0000   1.0000   1.0000   1.0000
     1.0000   1.0000   1.0000   1.0000   1.0000   1.0000   1.0000   1.0000
     1.0000   1.0000   1.0000   1.0000   1.0000   1.0000   1.0000   1.0000
     1.0000   1.0000   1.0000   1.0000   1.0000   1.0000   1.0000   1.0000
     1.0000   1.0000   1.0000   1.0000   1.0000   1.0000   1.0000   1.0000
     1.0000   1.0000   1.0000   1.0000   1.0000   1.0000   1.0000   1.0000
     1.0000   1.0000   1.0000   1.0000   1.0000   1.0000   1.0000   1.0000
     1.0000   1.0000   1.0000   1.0000   1.0000   1.0000   1.0000   1.0000
     1.0000   1.0000   1.0000   1.0000   1.0000   1.0000   1.0000   1.0000
     0.5271   0.4729   0.0000   0.0000   0.0000   0.0000   0.0000   0.0000
     0.0000   0.0000   0.0000   0.0000   0.0000   0.0000   0.0000   0.0000
     0.0000   0.0000   0.0000   0.0000   0.0000   0.0000

 ------ SPIN DOWN ----------


          k = 0.0000 0.0000 0.0000 ( 87777 PWs)   bands (ev):

   -19.8261 -18.9783 -18.9745 -18.9071 -18.9060 -18.8487 -18.7018 -17.1402
   -17.1397 -17.1256 -17.0781 -17.0751 -16.7868 -16.3026 -16.3004 -16.1727
   -16.1704 -16.1637 -15.7052 -14.3472 -14.3460 -14.1156 -14.0362 -14.0356
   -13.5457 -13.1516 -13.1514 -13.0770 -12.9128 -12.9102 -12.5784 -12.2184
   -12.2164 -11.7050 -11.5854 -11.5838 -11.0934 -10.8208 -10.8194  -9.4944
    -9.3554  -9.3545  -9.2453  -9.2346  -9.2345  -9.2217  -9.0152  -9.0151
    -8.9620  -8.9608  -8.8510  -8.6876  -8.6852  -7.9701  -7.8826  -7.8305
    -7.6261  -7.6251  -7.5275  -7.5265  -7.0269  -6.8504  -6.8489  -6.8316
    -6.7878  -6.7877  -6.7135  -6.7096  -6.6075  -6.6063  -6.5765  -6.5738
    -6.5729  -6.5256  -6.3784  -6.3684  -6.3672  -5.5967  -5.5950  -5.0198
    -4.9568  -4.8762  -4.8760  -4.7807  -4.7664  -4.7340  -4.7335  -4.5422
    -4.5392  -4.4521  -3.8578  -3.8569  -3.8031  -3.8027  -3.7927  -3.6324
    -3.6302  -3.3678  -1.8888  -1.8338  -1.8334  -1.7235  -1.7215  -1.1959
    -0.4648  -0.4424   0.9048   0.9412   0.9421   1.1051   1.1062   1.4961
     2.4917   2.7848   2.7865   2.8299   2.9431   2.9448   3.3899   3.6084
     3.6121   3.7275   3.7309   3.7487   3.9030   4.2651

     occupation numbers 
     1.0000   1.0000   1.0000   1.0000   1.0000   1.0000   1.0000   1.0000
     1.0000   1.0000   1.0000   1.0000   1.0000   1.0000   1.0000   1.0000
     1.0000   1.0000   1.0000   1.0000   1.0000   1.0000   1.0000   1.0000
     1.0000   1.0000   1.0000   1.0000   1.0000   1.0000   1.0000   1.0000
     1.0000   1.0000   1.0000   1.0000   1.0000   1.0000   1.0000   1.0000
     1.0000   1.0000   1.0000   1.0000   1.0000   1.0000   1.0000   1.0000
     1.0000   1.0000   1.0000   1.0000   1.0000   1.0000   1.0000   1.0000
     1.0000   1.0000   1.0000   1.0000   1.0000   1.0000   1.0000   1.0000
     1.0000   1.0000   1.0000   1.0000   1.0000   1.0000   1.0000   1.0000
     1.0000   1.0000   1.0000   1.0000   1.0000   1.0000   1.0000   1.0000
     1.0000   1.0000   1.0000   1.0000   1.0000   1.0000   1.0000   1.0000
     1.0000   1.0000   1.0000   1.0000   1.0000   1.0000   1.0000   1.0000
     1.0000   1.0000   1.0000   1.0000   1.0000   1.0000   1.0000   1.0000
     0.0000   0.0000   0.0000   0.0000   0.0000   0.0000   0.0000   0.0000
     0.0000   0.0000   0.0000   0.0000   0.0000   0.0000   0.0000   0.0000
     0.0000   0.0000   0.0000   0.0000   0.0000   0.0000

     the Fermi energy is    -0.8525 ev

!    total energy              =    -734.75924624 Ry
     Harris-Foulkes estimate   =    -734.75924643 Ry
     estimated scf accuracy    <       0.00000036 Ry

     The total energy is the sum of the following terms:

     one-electron contribution =   -2493.30804702 Ry
     hartree contribution      =    1302.31253714 Ry
     xc contribution           =    -275.93481584 Ry
     ewald contribution        =     732.17140666 Ry
     smearing contrib. (-TS)   =      -0.00032719 Ry

     total magnetization       =     1.00 Bohr mag/cell
     absolute magnetization    =     1.06 Bohr mag/cell

     convergence has been achieved in  25 iterations

     Writing output data file cobre-bridge-2.6.save/

     init_run     :     73.79s CPU     75.02s WALL (       1 calls)
     electrons    :   2541.00s CPU   2586.55s WALL (       1 calls)

     Called by init_run:
     wfcinit      :     43.85s CPU     44.10s WALL (       1 calls)
     wfcinit:atom :      0.05s CPU      0.08s WALL (       2 calls)
     wfcinit:wfcr :     43.46s CPU     43.61s WALL (       2 calls)
     potinit      :     12.44s CPU     12.87s WALL (       1 calls)
     hinit0       :      8.57s CPU      8.60s WALL (       1 calls)

     Called by electrons:
     c_bands      :   1584.24s CPU   1592.29s WALL (      25 calls)
     sum_band     :    555.29s CPU    571.12s WALL (      25 calls)
     v_of_rho     :    194.80s CPU    203.66s WALL (      26 calls)
     v_h          :      2.01s CPU      2.07s WALL (      26 calls)
     v_xc         :    192.79s CPU    201.59s WALL (      26 calls)
     newd         :    204.13s CPU    217.43s WALL (      26 calls)
     mix_rho      :     11.48s CPU     11.69s WALL (      25 calls)

     Called by c_bands:
     init_us_2    :      4.85s CPU      4.90s WALL (     102 calls)
     cegterg      :   1571.97s CPU   1579.96s WALL (      50 calls)

     Called by sum_band:
     sum_band:bec :      0.04s CPU      0.04s WALL (      50 calls)
     addusdens    :    347.11s CPU    361.72s WALL (      25 calls)

     Called by *egterg:
     h_psi        :    841.78s CPU    847.43s WALL (     201 calls)
     s_psi        :    284.16s CPU    284.30s WALL (     201 calls)
     g_psi        :      0.87s CPU      0.88s WALL (     149 calls)
     cdiaghg      :     12.72s CPU     12.73s WALL (     199 calls)
     cegterg:over :    188.81s CPU    188.86s WALL (     149 calls)
     cegterg:upda :    110.99s CPU    111.63s WALL (     149 calls)
     cegterg:last :     84.85s CPU     84.88s WALL (      50 calls)

     Called by h_psi:
     h_psi:pot    :    840.87s CPU    845.48s WALL (     201 calls)
     h_psi:calbec :    281.62s CPU    281.76s WALL (     201 calls)
     vloc_psi     :    275.24s CPU    279.63s WALL (     201 calls)
     add_vuspsi   :    284.00s CPU    284.09s WALL (     201 calls)

     General routines
     calbec       :    405.98s CPU    406.17s WALL (     251 calls)
     fft          :    118.94s CPU    122.54s WALL (    1944 calls)
     ffts         :      1.96s CPU      2.02s WALL (     102 calls)
     fftw         :    294.24s CPU    299.05s WALL (   34936 calls)
     interpolate  :      4.62s CPU      4.77s WALL (      52 calls)

     Parallel routines
     fft_scatt_xy :     72.37s CPU     73.22s WALL (   36982 calls)
     fft_scatt_yz :    146.94s CPU    153.19s WALL (   36982 calls)

     PWSCF        :  43m36.09s CPU  44m23.23s WALL


   This run was terminated on:  10:32:23   5Sep2022            

=------------------------------------------------------------------------------=
   JOB DONE.
=------------------------------------------------------------------------------=
