
     Program PWSCF v.6.4.1 starts on  5Sep2022 at  6:40:56 

     This program is part of the open-source Quantum ESPRESSO suite
     for quantum simulation of materials; please cite
         "P. Giannozzi et al., J. Phys.:Condens. Matter 21 395502 (2009);
         "P. Giannozzi et al., J. Phys.:Condens. Matter 29 465901 (2017);
          URL http://www.quantum-espresso.org", 
     in publications or presentations arising from this work. More details at
     http://www.quantum-espresso.org/quote

     Parallel version (MPI), running on     6 processors

     MPI processes distributed on     1 nodes
     R & G space division:  proc/nbgrp/npool/nimage =       6
     Reading input from distance-4.0.in

     Current dimensions of program PWSCF are:
     Max number of different atomic species (ntypx) = 10
     Max number of k-points (npk) =  40000
     Max angular momentum in pseudopotentials (lmaxx) =  3

     IMPORTANT: XC functional enforced from input :
     Exchange-correlation      = RVV10 ( 1  4 13  4 3 0)
     Any further DFT definition will be discarded
     Please, verify this is what you really want

               file H.pbe-rrkjus.UPF: wavefunction(s)  1S renormalized
               file Cu.pbe-dn-rrkjus_psl.1.0.0.UPF: wavefunction(s)  3D renormalized

     Subspace diagonalization in iterative solution of the eigenvalue problem:
     a serial algorithm will be used


     Parallelization info
     --------------------
     sticks:   dense  smooth     PW     G-vecs:    dense   smooth      PW
     Min        3051    1746    432               270999   117096   14629
     Max        3053    1747    437               271001   117099   14630
     Sum       18313   10477   2611              1626001   702581   87777



     bravais-lattice index     =            4
     lattice parameter (alat)  =      23.2937  a.u.
     unit-cell volume          =    8879.8548 (a.u.)^3
     number of atoms/cell      =           52
     number of atomic types    =            3
     number of electrons       =       209.00
     number of Kohn-Sham states=          126
     kinetic-energy cutoff     =      70.0000  Ry
     charge density cutoff     =     490.0000  Ry
     convergence threshold     =      1.0E-06
     mixing beta               =       0.7000
     number of iterations used =            8  plain     mixing
     Exchange-correlation      = RVV10 ( 1  4 13  4 3 0)

     celldm(1)=  23.293684  celldm(2)=   0.000000  celldm(3)=   0.811261
     celldm(4)=   0.000000  celldm(5)=   0.000000  celldm(6)=   0.000000

     crystal axes: (cart. coord. in units of alat)
               a(1) = (   1.000000   0.000000   0.000000 )  
               a(2) = (  -0.500000   0.866025   0.000000 )  
               a(3) = (   0.000000   0.000000   0.811261 )  

     reciprocal axes: (cart. coord. in units 2 pi/alat)
               b(1) = (  1.000000  0.577350 -0.000000 )  
               b(2) = (  0.000000  1.154701  0.000000 )  
               b(3) = (  0.000000 -0.000000  1.232649 )  


     PseudoPot. # 1 for H  read from file:
     /home/cristian/Escritorio/Proyecto_Grafeno/pseudopotenciales/H.pbe-rrkjus.UPF
     MD5 check sum: 7cc9d459525c9a0585f487a71c3c9563
     Pseudo is Ultrasoft, Zval =  1.0
     Generated by new atomic code, or converted to UPF format
     Using radial grid of 1061 points,  2 beta functions with: 
                l(1) =   0
                l(2) =   0
     Q(r) pseudized with 0 coefficients 


     PseudoPot. # 2 for C  read from file:
     /home/cristian/Escritorio/Proyecto_Grafeno/pseudopotenciales/C.pbe-n-rrkjus_psl.1.0.0.UPF
     MD5 check sum: 1fdd950c42eb37d8afe3dd2f8d12311e
     Pseudo is Ultrasoft + core correction, Zval =  4.0
     Generated using "atomic" code by A. Dal Corso v.6.3MaX
     Using radial grid of 1073 points,  4 beta functions with: 
                l(1) =   0
                l(2) =   0
                l(3) =   1
                l(4) =   1
     Q(r) pseudized with 0 coefficients 


     PseudoPot. # 3 for Cu read from file:
     /home/cristian/Escritorio/Proyecto_Grafeno/pseudopotenciales/Cu.pbe-dn-rrkjus_psl.1.0.0.UPF
     MD5 check sum: ba3d6c84e19846e79d48cdc68ff7152b
     Pseudo is Ultrasoft + core correction, Zval = 11.0
     Generated using "atomic" code by A. Dal Corso v.6.3
     Using radial grid of 1199 points,  6 beta functions with: 
                l(1) =   0
                l(2) =   0
                l(3) =   1
                l(4) =   1
                l(5) =   2
                l(6) =   2
     Q(r) pseudized with 0 coefficients 


     vdW kernel table read from file rVV10_kernel_table
     MD5 check sum: b8e2538accc0c0b3206b45ba4daaba6c

     atomic species   valence    mass     pseudopotential
        H              1.00     1.00794     H ( 1.00)
        C              4.00    12.01070     C ( 1.00)
        Cu            11.00    63.54600     Cu( 1.00)

     Starting magnetic structure 
     atomic species   magnetization
        H            0.500
        C            0.300
        Cu           0.800

     No symmetry found


                                    s                        frac. trans.

      isym =  1     identity                                     

 cryst.   s( 1) = (     1          0          0      )
                  (     0          1          0      )
                  (     0          0          1      )

 cart.    s( 1) = (  1.0000000  0.0000000  0.0000000 )
                  (  0.0000000  1.0000000  0.0000000 )
                  (  0.0000000  0.0000000  1.0000000 )


     point group C_1 (1)    
     there are  1 classes
     the character table:

       E    
A      1.00

     the symmetry operations in each class and the name of the first element:

     E        1
          identity                                               

   Cartesian axes

     site n.     atom                  positions (alat units)
         1           H   tau(   1) = (   0.2500000   0.4907477   0.3245045  )
         2           H   tau(   2) = (   0.2500000   0.4907477   0.3855171  )
         3           C   tau(   3) = (   0.0000000   0.0000000   0.0000000  )
         4           C   tau(   4) = (   0.0000000   0.1154701   0.0000000  )
         5           C   tau(   5) = (  -0.1000000   0.1732051   0.0000000  )
         6           C   tau(   6) = (  -0.1000000   0.2886751   0.0000000  )
         7           C   tau(   7) = (  -0.2000000   0.3464102   0.0000000  )
         8           C   tau(   8) = (  -0.2000000   0.4618802   0.0000000  )
         9           C   tau(   9) = (  -0.3000000   0.5196152   0.0000000  )
        10           C   tau(  10) = (  -0.3000000   0.6350853   0.0000000  )
        11           C   tau(  11) = (  -0.4000000   0.6928203   0.0000000  )
        12           C   tau(  12) = (  -0.4000000   0.8082904   0.0000000  )
        13           C   tau(  13) = (   0.2000000   0.0000000   0.0000000  )
        14           C   tau(  14) = (   0.2000000   0.1154701   0.0000000  )
        15           C   tau(  15) = (   0.1000000   0.1732051   0.0000000  )
        16           C   tau(  16) = (   0.1000000   0.2886751   0.0000000  )
        17           C   tau(  17) = (   0.0000000   0.3464102   0.0000000  )
        18           C   tau(  18) = (   0.0000000   0.4618802   0.0000000  )
        19           C   tau(  19) = (  -0.1000000   0.5196152   0.0000000  )
        20           C   tau(  20) = (  -0.1000000   0.6350853   0.0000000  )
        21           C   tau(  21) = (  -0.2000000   0.6928203   0.0000000  )
        22           C   tau(  22) = (  -0.2000000   0.8082904   0.0000000  )
        23           C   tau(  23) = (   0.4000000   0.0000000   0.0000000  )
        24           C   tau(  24) = (   0.4000000   0.1154701   0.0000000  )
        25           C   tau(  25) = (   0.3000000   0.1732051   0.0000000  )
        26           C   tau(  26) = (   0.3000000   0.2886751   0.0000000  )
        27           C   tau(  27) = (   0.2000000   0.3464102   0.0000000  )
        28           Cu  tau(  28) = (   0.2000000   0.4618802   0.0000000  )
        29           C   tau(  29) = (   0.1000000   0.5196152   0.0000000  )
        30           C   tau(  30) = (   0.1000000   0.6350853   0.0000000  )
        31           C   tau(  31) = (   0.0000000   0.6928203   0.0000000  )
        32           C   tau(  32) = (   0.0000000   0.8082904   0.0000000  )
        33           C   tau(  33) = (   0.6000000   0.0000000   0.0000000  )
        34           C   tau(  34) = (   0.6000000   0.1154701   0.0000000  )
        35           C   tau(  35) = (   0.5000000   0.1732051   0.0000000  )
        36           C   tau(  36) = (   0.5000000   0.2886751   0.0000000  )
        37           C   tau(  37) = (   0.4000000   0.3464102   0.0000000  )
        38           C   tau(  38) = (   0.4000000   0.4618802   0.0000000  )
        39           C   tau(  39) = (   0.3000000   0.5196152   0.0000000  )
        40           C   tau(  40) = (   0.3000000   0.6350853   0.0000000  )
        41           C   tau(  41) = (   0.2000000   0.6928203   0.0000000  )
        42           C   tau(  42) = (   0.2000000   0.8082904   0.0000000  )
        43           C   tau(  43) = (   0.8000000   0.0000000   0.0000000  )
        44           C   tau(  44) = (   0.8000000   0.1154701   0.0000000  )
        45           C   tau(  45) = (   0.7000000   0.1732051   0.0000000  )
        46           C   tau(  46) = (   0.7000000   0.2886751   0.0000000  )
        47           C   tau(  47) = (   0.6000000   0.3464102   0.0000000  )
        48           C   tau(  48) = (   0.6000000   0.4618802   0.0000000  )
        49           C   tau(  49) = (   0.5000000   0.5196152   0.0000000  )
        50           C   tau(  50) = (   0.5000000   0.6350853   0.0000000  )
        51           C   tau(  51) = (   0.4000000   0.6928203   0.0000000  )
        52           C   tau(  52) = (   0.4000000   0.8082904   0.0000000  )

   Crystallographic axes

     site n.     atom                  positions (cryst. coord.)
         1           H   tau(   1) = (  0.5333333  0.5666667  0.4000000  )
         2           H   tau(   2) = (  0.5333333  0.5666667  0.4752072  )
         3           C   tau(   3) = (  0.0000000  0.0000000  0.0000000  )
         4           C   tau(   4) = (  0.0666667  0.1333333  0.0000000  )
         5           C   tau(   5) = (  0.0000000  0.2000000  0.0000000  )
         6           C   tau(   6) = (  0.0666667  0.3333333  0.0000000  )
         7           C   tau(   7) = (  0.0000000  0.4000000  0.0000000  )
         8           C   tau(   8) = (  0.0666667  0.5333333  0.0000000  )
         9           C   tau(   9) = (  0.0000000  0.6000000  0.0000000  )
        10           C   tau(  10) = (  0.0666667  0.7333333  0.0000000  )
        11           C   tau(  11) = (  0.0000000  0.8000000  0.0000000  )
        12           C   tau(  12) = (  0.0666667  0.9333333  0.0000000  )
        13           C   tau(  13) = (  0.2000000  0.0000000  0.0000000  )
        14           C   tau(  14) = (  0.2666667  0.1333333  0.0000000  )
        15           C   tau(  15) = (  0.2000000  0.2000000  0.0000000  )
        16           C   tau(  16) = (  0.2666667  0.3333333  0.0000000  )
        17           C   tau(  17) = (  0.2000000  0.4000000  0.0000000  )
        18           C   tau(  18) = (  0.2666667  0.5333333  0.0000000  )
        19           C   tau(  19) = (  0.2000000  0.6000000  0.0000000  )
        20           C   tau(  20) = (  0.2666667  0.7333333  0.0000000  )
        21           C   tau(  21) = (  0.2000000  0.8000000  0.0000000  )
        22           C   tau(  22) = (  0.2666667  0.9333333  0.0000000  )
        23           C   tau(  23) = (  0.4000000  0.0000000  0.0000000  )
        24           C   tau(  24) = (  0.4666667  0.1333333  0.0000000  )
        25           C   tau(  25) = (  0.4000000  0.2000000  0.0000000  )
        26           C   tau(  26) = (  0.4666667  0.3333333  0.0000000  )
        27           C   tau(  27) = (  0.4000000  0.4000000  0.0000000  )
        28           Cu  tau(  28) = (  0.4666667  0.5333333  0.0000000  )
        29           C   tau(  29) = (  0.4000000  0.6000000  0.0000000  )
        30           C   tau(  30) = (  0.4666667  0.7333333  0.0000000  )
        31           C   tau(  31) = (  0.4000000  0.8000000  0.0000000  )
        32           C   tau(  32) = (  0.4666667  0.9333333  0.0000000  )
        33           C   tau(  33) = (  0.6000000  0.0000000  0.0000000  )
        34           C   tau(  34) = (  0.6666667  0.1333333  0.0000000  )
        35           C   tau(  35) = (  0.6000000  0.2000000  0.0000000  )
        36           C   tau(  36) = (  0.6666667  0.3333333  0.0000000  )
        37           C   tau(  37) = (  0.6000000  0.4000000  0.0000000  )
        38           C   tau(  38) = (  0.6666667  0.5333333  0.0000000  )
        39           C   tau(  39) = (  0.6000000  0.6000000  0.0000000  )
        40           C   tau(  40) = (  0.6666667  0.7333333  0.0000000  )
        41           C   tau(  41) = (  0.6000000  0.8000000  0.0000000  )
        42           C   tau(  42) = (  0.6666667  0.9333333  0.0000000  )
        43           C   tau(  43) = (  0.8000000  0.0000000  0.0000000  )
        44           C   tau(  44) = (  0.8666667  0.1333333  0.0000000  )
        45           C   tau(  45) = (  0.8000000  0.2000000  0.0000000  )
        46           C   tau(  46) = (  0.8666667  0.3333333  0.0000000  )
        47           C   tau(  47) = (  0.8000000  0.4000000  0.0000000  )
        48           C   tau(  48) = (  0.8666667  0.5333333  0.0000000  )
        49           C   tau(  49) = (  0.8000000  0.6000000  0.0000000  )
        50           C   tau(  50) = (  0.8666667  0.7333333  0.0000000  )
        51           C   tau(  51) = (  0.8000000  0.8000000  0.0000000  )
        52           C   tau(  52) = (  0.8666667  0.9333333  0.0000000  )

     number of k points=     1  Marzari-Vanderbilt smearing, width (Ry)=  0.0010
                       cart. coord. in units 2pi/alat
        k(    1) = (   0.0000000   0.0000000   0.0000000), wk =   1.0000000

                       cryst. coord.
        k(    1) = (   0.0000000   0.0000000   0.0000000), wk =   1.0000000

     Dense  grid:  1626001 G-vectors     FFT dimensions: ( 180, 180, 135)

     Smooth grid:   702581 G-vectors     FFT dimensions: ( 125, 125, 108)

     Dynamical RAM for                 wfc:      28.14 MB

     Dynamical RAM for     wfc (w. buffer):      84.42 MB

     Dynamical RAM for           str. fact:      12.41 MB

     Dynamical RAM for           local pot:       0.00 MB

     Dynamical RAM for          nlocal pot:      92.46 MB

     Dynamical RAM for                qrad:      19.73 MB

     Dynamical RAM for          rho,v,vnew:      58.92 MB

     Dynamical RAM for               rhoin:      19.64 MB

     Dynamical RAM for            rho*nmix:     132.32 MB

     Dynamical RAM for           G-vectors:      16.40 MB

     Dynamical RAM for          h,s,v(r/c):      11.63 MB

     Dynamical RAM for          <psi|beta>:       0.80 MB

     Dynamical RAM for                 psi:     112.56 MB

     Dynamical RAM for                hpsi:     112.56 MB

     Dynamical RAM for                spsi:     112.56 MB

     Dynamical RAM for      wfcinit/wfcrot:      93.45 MB

     Dynamical RAM for           addusdens:     975.89 MB

     Estimated static dynamical RAM per process >     486.96 MB

     Estimated max dynamical RAM per process >       1.43 GB

     Estimated total dynamical RAM >       8.57 GB
     Generating pointlists ...
     new r_m :   0.0252 (alat units)  0.5862 (a.u.) for type    1
     new r_m :   0.0476 (alat units)  1.1095 (a.u.) for type    2
     new r_m :   0.0476 (alat units)  1.1095 (a.u.) for type    3

     Check: negative core charge=   -0.000002

     Initial potential from superposition of free atoms

     starting charge  208.80532, renormalised to  209.00000

     negative rho (up, down):  6.542E-05 9.168E-03


---------------------------------------------------------------------------------
Carrying out rVV10 run using the following parameters:
Nqs =      20    Nr_points =    1024   r_max =   100.000
b_value =  6.30000    beta =  0.00901
     q_mesh =  0.00010000  0.00030000  0.00058939  0.00100810
               0.00161396  0.00249058  0.00375900  0.00559430
               0.00824984  0.01209221  0.01765183  0.02569619
               0.03733578  0.05417739  0.07854596  0.11380545
               0.16482331  0.23864234  0.34545298  0.50000000

Gradients computed in Reciprocal space

---------------------------------------------------------------------------------


     Starting wfcs are  207 randomized atomic wfcs

     total cpu time spent up to now is       78.1 secs

     Self-consistent Calculation

     iteration #  1     ecut=    70.00 Ry     beta= 0.70
     Davidson diagonalization with overlap
     ethr =  1.00E-02,  avg # of iterations =  2.5

     negative rho (up, down):  1.323E-04 9.747E-03

     total cpu time spent up to now is      209.6 secs

     total energy              =    -726.95613901 Ry
     Harris-Foulkes estimate   =    -734.95596867 Ry
     estimated scf accuracy    <      14.76059782 Ry

     total magnetization       =     7.00 Bohr mag/cell
     absolute magnetization    =     7.38 Bohr mag/cell

     iteration #  2     ecut=    70.00 Ry     beta= 0.70
     Davidson diagonalization with overlap
     ethr =  7.06E-03,  avg # of iterations =  4.0

     negative rho (up, down):  1.416E-04 8.472E-03

     total cpu time spent up to now is      337.4 secs

     total energy              =    -727.71522581 Ry
     Harris-Foulkes estimate   =    -745.81945334 Ry
     estimated scf accuracy    <      48.22668815 Ry

     total magnetization       =     2.92 Bohr mag/cell
     absolute magnetization    =     3.17 Bohr mag/cell

     iteration #  3     ecut=    70.00 Ry     beta= 0.70
     Davidson diagonalization with overlap
     ethr =  7.06E-03,  avg # of iterations =  4.0

     negative rho (up, down):  1.702E-04 7.722E-03

     total cpu time spent up to now is      449.1 secs

     total energy              =    -732.03860030 Ry
     Harris-Foulkes estimate   =    -736.31625944 Ry
     estimated scf accuracy    <      12.17126012 Ry

     total magnetization       =     2.97 Bohr mag/cell
     absolute magnetization    =     3.21 Bohr mag/cell

     iteration #  4     ecut=    70.00 Ry     beta= 0.70
     Davidson diagonalization with overlap
     ethr =  5.82E-03,  avg # of iterations =  3.0

     negative rho (up, down):  2.112E-04 5.601E-03

     total cpu time spent up to now is      550.4 secs

     total energy              =    -733.73927188 Ry
     Harris-Foulkes estimate   =    -734.96732889 Ry
     estimated scf accuracy    <       5.30049882 Ry

     total magnetization       =     3.00 Bohr mag/cell
     absolute magnetization    =     3.18 Bohr mag/cell

     iteration #  5     ecut=    70.00 Ry     beta= 0.70
     Davidson diagonalization with overlap
     ethr =  2.54E-03,  avg # of iterations =  2.0

     negative rho (up, down):  2.391E-04 8.406E-03

     total cpu time spent up to now is      648.1 secs

     total energy              =    -734.30155982 Ry
     Harris-Foulkes estimate   =    -735.09294407 Ry
     estimated scf accuracy    <       3.77234266 Ry

     total magnetization       =     1.00 Bohr mag/cell
     absolute magnetization    =     1.49 Bohr mag/cell

     iteration #  6     ecut=    70.00 Ry     beta= 0.70
     Davidson diagonalization with overlap
     ethr =  1.80E-03,  avg # of iterations =  2.0

     negative rho (up, down):  3.147E-04 1.468E-02

     total cpu time spent up to now is      745.5 secs

     total energy              =    -734.70744988 Ry
     Harris-Foulkes estimate   =    -734.76187491 Ry
     estimated scf accuracy    <       0.16040514 Ry

     total magnetization       =     1.00 Bohr mag/cell
     absolute magnetization    =     1.37 Bohr mag/cell

     iteration #  7     ecut=    70.00 Ry     beta= 0.70
     Davidson diagonalization with overlap
     ethr =  7.67E-05,  avg # of iterations =  7.0

     negative rho (up, down):  4.305E-04 1.085E-02

     total cpu time spent up to now is      871.3 secs

     total energy              =    -734.72005634 Ry
     Harris-Foulkes estimate   =    -734.80041339 Ry
     estimated scf accuracy    <       0.28589717 Ry

     total magnetization       =     1.00 Bohr mag/cell
     absolute magnetization    =     1.25 Bohr mag/cell

     iteration #  8     ecut=    70.00 Ry     beta= 0.70
     Davidson diagonalization with overlap
     ethr =  7.67E-05,  avg # of iterations = 10.5

     negative rho (up, down):  5.037E-04 4.961E-03

     total cpu time spent up to now is      980.7 secs

     total energy              =    -734.74914690 Ry
     Harris-Foulkes estimate   =    -734.76409306 Ry
     estimated scf accuracy    <       0.05555088 Ry

     total magnetization       =     1.00 Bohr mag/cell
     absolute magnetization    =     1.21 Bohr mag/cell

     iteration #  9     ecut=    70.00 Ry     beta= 0.70
     Davidson diagonalization with overlap
     ethr =  2.66E-05,  avg # of iterations =  3.0

     negative rho (up, down):  5.522E-04 3.038E-03

     total cpu time spent up to now is     1082.6 secs

     total energy              =    -734.75669648 Ry
     Harris-Foulkes estimate   =    -734.76063468 Ry
     estimated scf accuracy    <       0.04671123 Ry

     total magnetization       =     1.00 Bohr mag/cell
     absolute magnetization    =     1.17 Bohr mag/cell

     iteration # 10     ecut=    70.00 Ry     beta= 0.70
     Davidson diagonalization with overlap
     ethr =  2.23E-05,  avg # of iterations =  1.0

     negative rho (up, down):  5.777E-04 2.163E-03

     total cpu time spent up to now is     1177.7 secs

     total energy              =    -734.75751397 Ry
     Harris-Foulkes estimate   =    -734.75859578 Ry
     estimated scf accuracy    <       0.00342407 Ry

     total magnetization       =     1.00 Bohr mag/cell
     absolute magnetization    =     1.14 Bohr mag/cell

     iteration # 11     ecut=    70.00 Ry     beta= 0.70
     Davidson diagonalization with overlap
     ethr =  1.64E-06,  avg # of iterations =  4.0

     negative rho (up, down):  5.801E-04 2.448E-03

     total cpu time spent up to now is     1290.4 secs

     total energy              =    -734.75802153 Ry
     Harris-Foulkes estimate   =    -734.75858883 Ry
     estimated scf accuracy    <       0.00656150 Ry

     total magnetization       =     1.00 Bohr mag/cell
     absolute magnetization    =     1.11 Bohr mag/cell

     iteration # 12     ecut=    70.00 Ry     beta= 0.70
     Davidson diagonalization with overlap
     ethr =  1.64E-06,  avg # of iterations =  2.0

     negative rho (up, down):  5.828E-04 2.925E-03

     total cpu time spent up to now is     1386.2 secs

     total energy              =    -734.75791209 Ry
     Harris-Foulkes estimate   =    -734.75899048 Ry
     estimated scf accuracy    <       0.02027811 Ry

     total magnetization       =     1.00 Bohr mag/cell
     absolute magnetization    =     1.12 Bohr mag/cell

     iteration # 13     ecut=    70.00 Ry     beta= 0.70
     Davidson diagonalization with overlap
     ethr =  1.64E-06,  avg # of iterations =  1.0

     negative rho (up, down):  5.830E-04 1.936E-03

     total cpu time spent up to now is     1481.4 secs

     total energy              =    -734.75841863 Ry
     Harris-Foulkes estimate   =    -734.75843337 Ry
     estimated scf accuracy    <       0.00022978 Ry

     total magnetization       =     1.00 Bohr mag/cell
     absolute magnetization    =     1.10 Bohr mag/cell

     iteration # 14     ecut=    70.00 Ry     beta= 0.70
     Davidson diagonalization with overlap
     ethr =  1.10E-07,  avg # of iterations =  3.0

     negative rho (up, down):  5.746E-04 1.477E-03

     total cpu time spent up to now is     1583.5 secs

     total energy              =    -734.75844783 Ry
     Harris-Foulkes estimate   =    -734.75845127 Ry
     estimated scf accuracy    <       0.00003269 Ry

     total magnetization       =     1.00 Bohr mag/cell
     absolute magnetization    =     1.08 Bohr mag/cell

     iteration # 15     ecut=    70.00 Ry     beta= 0.70
     Davidson diagonalization with overlap
     ethr =  1.56E-08,  avg # of iterations =  3.0

     negative rho (up, down):  5.748E-04 1.497E-03

     total cpu time spent up to now is     1697.6 secs

     total energy              =    -734.75845844 Ry
     Harris-Foulkes estimate   =    -734.75846199 Ry
     estimated scf accuracy    <       0.00019618 Ry

     total magnetization       =     1.00 Bohr mag/cell
     absolute magnetization    =     1.07 Bohr mag/cell

     iteration # 16     ecut=    70.00 Ry     beta= 0.70
     Davidson diagonalization with overlap
     ethr =  1.56E-08,  avg # of iterations =  1.5

     negative rho (up, down):  5.736E-04 1.485E-03

     total cpu time spent up to now is     1793.1 secs

     total energy              =    -734.75845824 Ry
     Harris-Foulkes estimate   =    -734.75846115 Ry
     estimated scf accuracy    <       0.00014848 Ry

     total magnetization       =     1.00 Bohr mag/cell
     absolute magnetization    =     1.07 Bohr mag/cell

     iteration # 17     ecut=    70.00 Ry     beta= 0.70
     Davidson diagonalization with overlap
     ethr =  1.56E-08,  avg # of iterations =  2.0

     negative rho (up, down):  5.721E-04 1.466E-03

     total cpu time spent up to now is     1888.8 secs

     total energy              =    -734.75845904 Ry
     Harris-Foulkes estimate   =    -734.75846260 Ry
     estimated scf accuracy    <       0.00001662 Ry

     total magnetization       =     1.00 Bohr mag/cell
     absolute magnetization    =     1.07 Bohr mag/cell

     iteration # 18     ecut=    70.00 Ry     beta= 0.70
     Davidson diagonalization with overlap
     ethr =  7.95E-09,  avg # of iterations =  2.0

     negative rho (up, down):  5.722E-04 1.491E-03

     total cpu time spent up to now is     1989.5 secs

     total energy              =    -734.75846457 Ry
     Harris-Foulkes estimate   =    -734.75846414 Ry
     estimated scf accuracy    <       0.00013196 Ry

     total magnetization       =     1.00 Bohr mag/cell
     absolute magnetization    =     1.07 Bohr mag/cell

     iteration # 19     ecut=    70.00 Ry     beta= 0.70
     Davidson diagonalization with overlap
     ethr =  7.95E-09,  avg # of iterations =  2.0

     negative rho (up, down):  5.709E-04 1.487E-03

     total cpu time spent up to now is     2086.7 secs

     total energy              =    -734.75846283 Ry
     Harris-Foulkes estimate   =    -734.75846584 Ry
     estimated scf accuracy    <       0.00022496 Ry

     total magnetization       =     1.00 Bohr mag/cell
     absolute magnetization    =     1.07 Bohr mag/cell

     iteration # 20     ecut=    70.00 Ry     beta= 0.70
     Davidson diagonalization with overlap
     ethr =  7.95E-09,  avg # of iterations =  2.5

     negative rho (up, down):  5.711E-04 1.477E-03

     total cpu time spent up to now is     2184.7 secs

     total energy              =    -734.75846411 Ry
     Harris-Foulkes estimate   =    -734.75846501 Ry
     estimated scf accuracy    <       0.00008018 Ry

     total magnetization       =     1.00 Bohr mag/cell
     absolute magnetization    =     1.07 Bohr mag/cell

     iteration # 21     ecut=    70.00 Ry     beta= 0.70
     Davidson diagonalization with overlap
     ethr =  7.95E-09,  avg # of iterations =  2.0

     negative rho (up, down):  5.699E-04 1.468E-03

     total cpu time spent up to now is     2281.1 secs

     total energy              =    -734.75846253 Ry
     Harris-Foulkes estimate   =    -734.75846647 Ry
     estimated scf accuracy    <       0.00013825 Ry

     total magnetization       =     1.00 Bohr mag/cell
     absolute magnetization    =     1.07 Bohr mag/cell

     iteration # 22     ecut=    70.00 Ry     beta= 0.70
     Davidson diagonalization with overlap
     ethr =  7.95E-09,  avg # of iterations =  2.5

     negative rho (up, down):  5.693E-04 1.471E-03

     total cpu time spent up to now is     2382.7 secs

     total energy              =    -734.75846438 Ry
     Harris-Foulkes estimate   =    -734.75846588 Ry
     estimated scf accuracy    <       0.00004139 Ry

     total magnetization       =     1.00 Bohr mag/cell
     absolute magnetization    =     1.07 Bohr mag/cell

     iteration # 23     ecut=    70.00 Ry     beta= 0.70
     Davidson diagonalization with overlap
     ethr =  7.95E-09,  avg # of iterations =  2.0

     negative rho (up, down):  5.690E-04 1.474E-03

     total cpu time spent up to now is     2482.2 secs

     total energy              =    -734.75846520 Ry
     Harris-Foulkes estimate   =    -734.75846650 Ry
     estimated scf accuracy    <       0.00003010 Ry

     total magnetization       =     1.00 Bohr mag/cell
     absolute magnetization    =     1.06 Bohr mag/cell

     iteration # 24     ecut=    70.00 Ry     beta= 0.70
     Davidson diagonalization with overlap
     ethr =  7.95E-09,  avg # of iterations =  1.5

     negative rho (up, down):  5.696E-04 1.460E-03

     total cpu time spent up to now is     2577.6 secs

     total energy              =    -734.75846547 Ry
     Harris-Foulkes estimate   =    -734.75846604 Ry
     estimated scf accuracy    <       0.00000648 Ry

     total magnetization       =     1.00 Bohr mag/cell
     absolute magnetization    =     1.06 Bohr mag/cell

     iteration # 25     ecut=    70.00 Ry     beta= 0.70
     Davidson diagonalization with overlap
     ethr =  3.10E-09,  avg # of iterations =  2.5

     negative rho (up, down):  5.698E-04 1.459E-03

     total cpu time spent up to now is     2677.4 secs

     total energy              =    -734.75846590 Ry
     Harris-Foulkes estimate   =    -734.75846631 Ry
     estimated scf accuracy    <       0.00000211 Ry

     total magnetization       =     1.00 Bohr mag/cell
     absolute magnetization    =     1.07 Bohr mag/cell

     iteration # 26     ecut=    70.00 Ry     beta= 0.70
     Davidson diagonalization with overlap
     ethr =  1.01E-09,  avg # of iterations =  2.5

     negative rho (up, down):  5.702E-04 1.459E-03

     Magnetic moment per site:
     atom:    1    charge:    0.2111    magn:   -0.0000    constr:    0.0000
     atom:    2    charge:    0.2115    magn:   -0.0000    constr:    0.0000
     atom:    3    charge:    1.7158    magn:    0.0016    constr:    0.0000
     atom:    4    charge:    1.7153    magn:    0.0017    constr:    0.0000
     atom:    5    charge:    1.7170    magn:    0.0001    constr:    0.0000
     atom:    6    charge:    1.7146    magn:   -0.0001    constr:    0.0000
     atom:    7    charge:    1.7170    magn:    0.0001    constr:    0.0000
     atom:    8    charge:    1.7153    magn:    0.0017    constr:    0.0000
     atom:    9    charge:    1.7158    magn:    0.0016    constr:    0.0000
     atom:   10    charge:    1.7170    magn:   -0.0009    constr:    0.0000
     atom:   11    charge:    1.7160    magn:    0.0005    constr:    0.0000
     atom:   12    charge:    1.7170    magn:   -0.0009    constr:    0.0000
     atom:   13    charge:    1.7160    magn:    0.0005    constr:    0.0000
     atom:   14    charge:    1.7169    magn:   -0.0010    constr:    0.0000
     atom:   15    charge:    1.7130    magn:    0.0073    constr:    0.0000
     atom:   16    charge:    1.7108    magn:    0.0133    constr:    0.0000
     atom:   17    charge:    1.7214    magn:    0.0030    constr:    0.0000
     atom:   18    charge:    1.7108    magn:    0.0133    constr:    0.0000
     atom:   19    charge:    1.7130    magn:    0.0073    constr:    0.0000
     atom:   20    charge:    1.7169    magn:   -0.0010    constr:    0.0000
     atom:   21    charge:    1.7160    magn:    0.0005    constr:    0.0000
     atom:   22    charge:    1.7170    magn:   -0.0009    constr:    0.0000
     atom:   23    charge:    1.7158    magn:    0.0016    constr:    0.0000
     atom:   24    charge:    1.7153    magn:    0.0017    constr:    0.0000
     atom:   25    charge:    1.7130    magn:    0.0072    constr:    0.0000
     atom:   26    charge:    1.7108    magn:    0.0130    constr:    0.0000
     atom:   27    charge:    1.8174    magn:    0.0793    constr:    0.0000
     atom:   28    charge:    7.0284    magn:    0.1548    constr:    0.0000
     atom:   29    charge:    1.8173    magn:    0.0791    constr:    0.0000
     atom:   30    charge:    1.7108    magn:    0.0130    constr:    0.0000
     atom:   31    charge:    1.7130    magn:    0.0072    constr:    0.0000
     atom:   32    charge:    1.7153    magn:    0.0017    constr:    0.0000
     atom:   33    charge:    1.7169    magn:    0.0001    constr:    0.0000
     atom:   34    charge:    1.7152    magn:   -0.0001    constr:    0.0000
     atom:   35    charge:    1.7169    magn:    0.0001    constr:    0.0000
     atom:   36    charge:    1.7146    magn:   -0.0001    constr:    0.0000
     atom:   37    charge:    1.7214    magn:    0.0031    constr:    0.0000
     atom:   38    charge:    1.7108    magn:    0.0130    constr:    0.0000
     atom:   39    charge:    1.8173    magn:    0.0805    constr:    0.0000
     atom:   40    charge:    1.7108    magn:    0.0131    constr:    0.0000
     atom:   41    charge:    1.7214    magn:    0.0031    constr:    0.0000
     atom:   42    charge:    1.7146    magn:   -0.0001    constr:    0.0000
     atom:   43    charge:    1.7170    magn:    0.0001    constr:    0.0000
     atom:   44    charge:    1.7153    magn:   -0.0001    constr:    0.0000
     atom:   45    charge:    1.7211    magn:   -0.0006    constr:    0.0000
     atom:   46    charge:    1.7152    magn:   -0.0001    constr:    0.0000
     atom:   47    charge:    1.7170    magn:    0.0001    constr:    0.0000
     atom:   48    charge:    1.7153    magn:    0.0017    constr:    0.0000
     atom:   49    charge:    1.7130    magn:    0.0073    constr:    0.0000
     atom:   50    charge:    1.7169    magn:   -0.0010    constr:    0.0000
     atom:   51    charge:    1.7130    magn:    0.0073    constr:    0.0000
     atom:   52    charge:    1.7153    magn:    0.0017    constr:    0.0000

     total cpu time spent up to now is     2773.8 secs

     End of self-consistent calculation

 ------ SPIN UP ------------


          k = 0.0000 0.0000 0.0000 ( 87777 PWs)   bands (ev):

   -19.8485 -19.0067 -19.0062 -18.9109 -18.9108 -18.8491 -18.7735 -17.1772
   -17.1769 -17.1393 -17.0957 -17.0952 -16.8171 -16.3364 -16.3360 -16.1905
   -16.1902 -16.1681 -15.7770 -14.4338 -14.4332 -14.1374 -14.0415 -14.0414
   -13.5848 -13.1743 -13.1742 -13.0875 -12.9453 -12.9450 -12.6400 -12.3256
   -12.3254 -11.7220 -11.6163 -11.6162 -11.1953 -10.9470 -10.9466  -9.5327
    -9.3719  -9.3717  -9.2504  -9.2406  -9.2406  -9.2313  -9.1218  -9.1205
    -9.0689  -9.0686  -8.9702  -8.7250  -8.7249  -7.9644  -7.9042  -7.8468
    -7.6718  -7.6715  -7.5417  -7.5416  -6.9480  -6.8486  -6.8484  -6.8257
    -6.7971  -6.7244  -6.7229  -6.7216  -6.6263  -6.6260  -6.5815  -6.5748
    -6.5747  -6.5469  -6.5291  -6.4061  -6.4057  -5.6207  -5.6207  -5.0362
    -5.0258  -4.9641  -4.8933  -4.8931  -4.7694  -4.7325  -4.7324  -4.5486
    -4.5484  -4.4770  -3.8590  -3.8589  -3.8256  -3.8255  -3.7897  -3.6474
    -3.6474  -3.4154  -1.8905  -1.8334  -1.8333  -1.7412  -1.7408  -1.2311
    -0.8482  -0.8480   0.9040   0.9409   0.9410   1.0872   1.0873   1.4892
     2.4768   2.7867   2.7868   2.8308   2.9239   2.9240   3.3654   3.6001
     3.6011   3.7286   3.7325   3.7510   3.7778   3.8920

     occupation numbers 
     1.0000   1.0000   1.0000   1.0000   1.0000   1.0000   1.0000   1.0000
     1.0000   1.0000   1.0000   1.0000   1.0000   1.0000   1.0000   1.0000
     1.0000   1.0000   1.0000   1.0000   1.0000   1.0000   1.0000   1.0000
     1.0000   1.0000   1.0000   1.0000   1.0000   1.0000   1.0000   1.0000
     1.0000   1.0000   1.0000   1.0000   1.0000   1.0000   1.0000   1.0000
     1.0000   1.0000   1.0000   1.0000   1.0000   1.0000   1.0000   1.0000
     1.0000   1.0000   1.0000   1.0000   1.0000   1.0000   1.0000   1.0000
     1.0000   1.0000   1.0000   1.0000   1.0000   1.0000   1.0000   1.0000
     1.0000   1.0000   1.0000   1.0000   1.0000   1.0000   1.0000   1.0000
     1.0000   1.0000   1.0000   1.0000   1.0000   1.0000   1.0000   1.0000
     1.0000   1.0000   1.0000   1.0000   1.0000   1.0000   1.0000   1.0000
     1.0000   1.0000   1.0000   1.0000   1.0000   1.0000   1.0000   1.0000
     1.0000   1.0000   1.0000   1.0000   1.0000   1.0000   1.0000   1.0000
     0.5049   0.4951   0.0000   0.0000   0.0000   0.0000   0.0000   0.0000
     0.0000   0.0000   0.0000   0.0000   0.0000   0.0000   0.0000   0.0000
     0.0000   0.0000   0.0000   0.0000   0.0000   0.0000

 ------ SPIN DOWN ----------


          k = 0.0000 0.0000 0.0000 ( 87777 PWs)   bands (ev):

   -19.8234 -18.9743 -18.9735 -18.9041 -18.9039 -18.8459 -18.6982 -17.1374
   -17.1372 -17.1233 -17.0741 -17.0733 -16.7836 -16.2991 -16.2986 -16.1690
   -16.1683 -16.1611 -15.7014 -14.3433 -14.3432 -14.1132 -14.0334 -14.0333
   -13.5422 -13.1488 -13.1488 -13.0745 -12.9088 -12.9080 -12.5752 -12.2144
   -12.2139 -11.7023 -11.5819 -11.5814 -11.0900 -10.8170 -10.8165  -9.4918
    -9.3524  -9.3522  -9.2427  -9.2318  -9.2318  -9.2189  -9.0123  -9.0122
    -8.9507  -8.9478  -8.8454  -8.6838  -8.6832  -7.9541  -7.8799  -7.8250
    -7.6229  -7.6227  -7.5242  -7.5239  -6.8982  -6.8474  -6.8472  -6.7964
    -6.7852  -6.7099  -6.7097  -6.6871  -6.6043  -6.6041  -6.5737  -6.5709
    -6.5708  -6.5456  -6.5229  -6.3652  -6.3649  -5.5933  -5.5929  -5.0172
    -4.9542  -4.8734  -4.8732  -4.8123  -4.7644  -4.7314  -4.7313  -4.5388
    -4.5386  -4.4608  -3.8549  -3.8548  -3.8001  -3.7999  -3.7904  -3.6290
    -3.6289  -3.3774  -1.8866  -1.8315  -1.8314  -1.7188  -1.7186  -1.1945
    -0.4499  -0.4427   0.9072   0.9442   0.9444   1.1105   1.1108   1.5012
     2.4779   2.7890   2.7890   2.8320   2.9512   2.9515   3.3732   3.6015
     3.6019   3.7278   3.7316   3.7500   3.7845   3.9047

     occupation numbers 
     1.0000   1.0000   1.0000   1.0000   1.0000   1.0000   1.0000   1.0000
     1.0000   1.0000   1.0000   1.0000   1.0000   1.0000   1.0000   1.0000
     1.0000   1.0000   1.0000   1.0000   1.0000   1.0000   1.0000   1.0000
     1.0000   1.0000   1.0000   1.0000   1.0000   1.0000   1.0000   1.0000
     1.0000   1.0000   1.0000   1.0000   1.0000   1.0000   1.0000   1.0000
     1.0000   1.0000   1.0000   1.0000   1.0000   1.0000   1.0000   1.0000
     1.0000   1.0000   1.0000   1.0000   1.0000   1.0000   1.0000   1.0000
     1.0000   1.0000   1.0000   1.0000   1.0000   1.0000   1.0000   1.0000
     1.0000   1.0000   1.0000   1.0000   1.0000   1.0000   1.0000   1.0000
     1.0000   1.0000   1.0000   1.0000   1.0000   1.0000   1.0000   1.0000
     1.0000   1.0000   1.0000   1.0000   1.0000   1.0000   1.0000   1.0000
     1.0000   1.0000   1.0000   1.0000   1.0000   1.0000   1.0000   1.0000
     1.0000   1.0000   1.0000   1.0000   1.0000   1.0000   1.0000   1.0000
     0.0000   0.0000   0.0000   0.0000   0.0000   0.0000   0.0000   0.0000
     0.0000   0.0000   0.0000   0.0000   0.0000   0.0000   0.0000   0.0000
     0.0000   0.0000   0.0000   0.0000   0.0000   0.0000

     the Fermi energy is    -0.8462 ev

!    total energy              =    -734.75846597 Ry
     Harris-Foulkes estimate   =    -734.75846617 Ry
     estimated scf accuracy    <       0.00000060 Ry

     The total energy is the sum of the following terms:

     one-electron contribution =   -2476.22599577 Ry
     hartree contribution      =    1293.78587705 Ry
     xc contribution           =    -275.91888291 Ry
     ewald contribution        =     723.60086381 Ry
     smearing contrib. (-TS)   =      -0.00032815 Ry

     total magnetization       =     1.00 Bohr mag/cell
     absolute magnetization    =     1.07 Bohr mag/cell

     convergence has been achieved in  26 iterations

     Writing output data file cobre-bridge-4.0.save/

     init_run     :     75.75s CPU     77.00s WALL (       1 calls)
     electrons    :   2646.34s CPU   2695.85s WALL (       1 calls)

     Called by init_run:
     wfcinit      :     42.49s CPU     42.72s WALL (       1 calls)
     wfcinit:atom :      0.06s CPU      0.09s WALL (       2 calls)
     wfcinit:wfcr :     42.10s CPU     42.24s WALL (       2 calls)
     potinit      :     13.62s CPU     14.08s WALL (       1 calls)
     hinit0       :     10.75s CPU     10.77s WALL (       1 calls)

     Called by electrons:
     c_bands      :   1651.10s CPU   1660.39s WALL (      26 calls)
     sum_band     :    575.89s CPU    593.60s WALL (      26 calls)
     v_of_rho     :    200.07s CPU    209.11s WALL (      27 calls)
     v_h          :      2.06s CPU      2.11s WALL (      27 calls)
     v_xc         :    198.02s CPU    207.00s WALL (      27 calls)
     newd         :    216.21s CPU    230.26s WALL (      27 calls)
     mix_rho      :     11.82s CPU     12.00s WALL (      26 calls)

     Called by c_bands:
     init_us_2    :      4.82s CPU      4.86s WALL (     106 calls)
     cegterg      :   1638.32s CPU   1647.56s WALL (      52 calls)

     Called by sum_band:
     sum_band:bec :      0.04s CPU      0.04s WALL (      52 calls)
     addusdens    :    343.16s CPU    359.56s WALL (      26 calls)

     Called by *egterg:
     h_psi        :    856.53s CPU    862.85s WALL (     204 calls)
     s_psi        :    287.04s CPU    287.26s WALL (     204 calls)
     g_psi        :      0.92s CPU      0.92s WALL (     150 calls)
     cdiaghg      :     12.61s CPU     12.62s WALL (     202 calls)
     cegterg:over :    211.43s CPU    211.52s WALL (     150 calls)
     cegterg:upda :    122.37s CPU    123.18s WALL (     150 calls)
     cegterg:last :     89.74s CPU     89.76s WALL (      52 calls)

     Called by h_psi:
     h_psi:pot    :    855.52s CPU    860.70s WALL (     204 calls)
     h_psi:calbec :    289.48s CPU    289.61s WALL (     204 calls)
     vloc_psi     :    279.06s CPU    284.01s WALL (     204 calls)
     add_vuspsi   :    286.97s CPU    287.08s WALL (     204 calls)

     General routines
     calbec       :    415.10s CPU    415.27s WALL (     256 calls)
     fft          :    146.28s CPU    149.93s WALL (    2019 calls)
     ffts         :      1.96s CPU      2.03s WALL (     106 calls)
     fftw         :    298.43s CPU    303.96s WALL (   36790 calls)
     interpolate  :      4.65s CPU      4.76s WALL (      54 calls)

     Parallel routines
     fft_scatt_xy :     70.11s CPU     71.05s WALL (   38915 calls)
     fft_scatt_yz :    182.12s CPU    189.13s WALL (   38915 calls)

     PWSCF        :  45m23.36s CPU  46m14.48s WALL


   This run was terminated on:   7:27:10   5Sep2022            

=------------------------------------------------------------------------------=
   JOB DONE.
=------------------------------------------------------------------------------=
