
     Program PWSCF v.6.4.1 starts on  4Sep2022 at 13: 0:43 

     This program is part of the open-source Quantum ESPRESSO suite
     for quantum simulation of materials; please cite
         "P. Giannozzi et al., J. Phys.:Condens. Matter 21 395502 (2009);
         "P. Giannozzi et al., J. Phys.:Condens. Matter 29 465901 (2017);
          URL http://www.quantum-espresso.org", 
     in publications or presentations arising from this work. More details at
     http://www.quantum-espresso.org/quote

     Parallel version (MPI), running on     6 processors

     MPI processes distributed on     1 nodes
     R & G space division:  proc/nbgrp/npool/nimage =       6
     Reading input from distance-3.0.in

     Current dimensions of program PWSCF are:
     Max number of different atomic species (ntypx) = 10
     Max number of k-points (npk) =  40000
     Max angular momentum in pseudopotentials (lmaxx) =  3

     IMPORTANT: XC functional enforced from input :
     Exchange-correlation      = RVV10 ( 1  4 13  4 3 0)
     Any further DFT definition will be discarded
     Please, verify this is what you really want

               file H.pbe-rrkjus.UPF: wavefunction(s)  1S renormalized
               file Mn.pbe-spn-rrkjus_psl.0.3.1.UPF: wavefunction(s)  3D renormalized

     Subspace diagonalization in iterative solution of the eigenvalue problem:
     a serial algorithm will be used


     Parallelization info
     --------------------
     sticks:   dense  smooth     PW     G-vecs:    dense   smooth      PW
     Min        3051    1746    432               270999   117096   14629
     Max        3053    1747    437               271001   117099   14630
     Sum       18313   10477   2611              1626001   702581   87777



     bravais-lattice index     =            4
     lattice parameter (alat)  =      23.2937  a.u.
     unit-cell volume          =    8879.8548 (a.u.)^3
     number of atoms/cell      =           52
     number of atomic types    =            3
     number of electrons       =       213.00
     number of Kohn-Sham states=          128
     kinetic-energy cutoff     =      70.0000  Ry
     charge density cutoff     =     490.0000  Ry
     convergence threshold     =      1.0E-06
     mixing beta               =       0.7000
     number of iterations used =            8  plain     mixing
     Exchange-correlation      = RVV10 ( 1  4 13  4 3 0)

     celldm(1)=  23.293684  celldm(2)=   0.000000  celldm(3)=   0.811261
     celldm(4)=   0.000000  celldm(5)=   0.000000  celldm(6)=   0.000000

     crystal axes: (cart. coord. in units of alat)
               a(1) = (   1.000000   0.000000   0.000000 )  
               a(2) = (  -0.500000   0.866025   0.000000 )  
               a(3) = (   0.000000   0.000000   0.811261 )  

     reciprocal axes: (cart. coord. in units 2 pi/alat)
               b(1) = (  1.000000  0.577350 -0.000000 )  
               b(2) = (  0.000000  1.154701  0.000000 )  
               b(3) = (  0.000000 -0.000000  1.232649 )  


     PseudoPot. # 1 for H  read from file:
     /home/cristian/Escritorio/Proyecto_Grafeno/pseudopotenciales/H.pbe-rrkjus.UPF
     MD5 check sum: 7cc9d459525c9a0585f487a71c3c9563
     Pseudo is Ultrasoft, Zval =  1.0
     Generated by new atomic code, or converted to UPF format
     Using radial grid of 1061 points,  2 beta functions with: 
                l(1) =   0
                l(2) =   0
     Q(r) pseudized with 0 coefficients 


     PseudoPot. # 2 for C  read from file:
     /home/cristian/Escritorio/Proyecto_Grafeno/pseudopotenciales/C.pbe-n-rrkjus_psl.1.0.0.UPF
     MD5 check sum: 1fdd950c42eb37d8afe3dd2f8d12311e
     Pseudo is Ultrasoft + core correction, Zval =  4.0
     Generated using "atomic" code by A. Dal Corso v.6.3MaX
     Using radial grid of 1073 points,  4 beta functions with: 
                l(1) =   0
                l(2) =   0
                l(3) =   1
                l(4) =   1
     Q(r) pseudized with 0 coefficients 


     PseudoPot. # 3 for Mn read from file:
     /home/cristian/Escritorio/Proyecto_Grafeno/pseudopotenciales/Mn.pbe-spn-rrkjus_psl.0.3.1.UPF
     MD5 check sum: e1cac159bdd2ba70c18e85765a5d4279
     Pseudo is Ultrasoft + core correction, Zval = 15.0
     Generated using "atomic" code by A. Dal Corso v.6.2.2
     Using radial grid of 1187 points,  6 beta functions with: 
                l(1) =   0
                l(2) =   0
                l(3) =   1
                l(4) =   1
                l(5) =   2
                l(6) =   2
     Q(r) pseudized with 0 coefficients 


     vdW kernel table read from file rVV10_kernel_table
     MD5 check sum: b8e2538accc0c0b3206b45ba4daaba6c

     atomic species   valence    mass     pseudopotential
        H              1.00     1.00794     H ( 1.00)
        C              4.00    12.01070     C ( 1.00)
        Mn            15.00    54.93804     Mn( 1.00)

     No symmetry found


                                    s                        frac. trans.

      isym =  1     identity                                     

 cryst.   s( 1) = (     1          0          0      )
                  (     0          1          0      )
                  (     0          0          1      )

 cart.    s( 1) = (  1.0000000  0.0000000  0.0000000 )
                  (  0.0000000  1.0000000  0.0000000 )
                  (  0.0000000  0.0000000  1.0000000 )


     point group C_1 (1)    
     there are  1 classes
     the character table:

       E    
A      1.00

     the symmetry operations in each class and the name of the first element:

     E        1
          identity                                               

   Cartesian axes

     site n.     atom                  positions (alat units)
         1           H   tau(   1) = (   0.2361603   0.4618802   0.2433783  )
         2           H   tau(   2) = (   0.2971730   0.4618802   0.2433783  )
         3           C   tau(   3) = (   0.0000000   0.0000000   0.0000000  )
         4           C   tau(   4) = (   0.0000000   0.1154701   0.0000000  )
         5           C   tau(   5) = (  -0.1000000   0.1732051   0.0000000  )
         6           C   tau(   6) = (  -0.1000000   0.2886751   0.0000000  )
         7           C   tau(   7) = (  -0.2000000   0.3464102   0.0000000  )
         8           C   tau(   8) = (  -0.2000000   0.4618802   0.0000000  )
         9           C   tau(   9) = (  -0.3000000   0.5196152   0.0000000  )
        10           C   tau(  10) = (  -0.3000000   0.6350853   0.0000000  )
        11           C   tau(  11) = (  -0.4000000   0.6928203   0.0000000  )
        12           C   tau(  12) = (  -0.4000000   0.8082904   0.0000000  )
        13           C   tau(  13) = (   0.2000000   0.0000000   0.0000000  )
        14           C   tau(  14) = (   0.2000000   0.1154701   0.0000000  )
        15           C   tau(  15) = (   0.1000000   0.1732051   0.0000000  )
        16           C   tau(  16) = (   0.1000000   0.2886751   0.0000000  )
        17           C   tau(  17) = (   0.0000000   0.3464102   0.0000000  )
        18           C   tau(  18) = (   0.0000000   0.4618802   0.0000000  )
        19           C   tau(  19) = (  -0.1000000   0.5196152   0.0000000  )
        20           C   tau(  20) = (  -0.1000000   0.6350853   0.0000000  )
        21           C   tau(  21) = (  -0.2000000   0.6928203   0.0000000  )
        22           C   tau(  22) = (  -0.2000000   0.8082904   0.0000000  )
        23           C   tau(  23) = (   0.4000000   0.0000000   0.0000000  )
        24           C   tau(  24) = (   0.4000000   0.1154701   0.0000000  )
        25           C   tau(  25) = (   0.3000000   0.1732051   0.0000000  )
        26           C   tau(  26) = (   0.3000000   0.2886751   0.0000000  )
        27           C   tau(  27) = (   0.2000000   0.3464102   0.0000000  )
        28           Mn  tau(  28) = (   0.2000000   0.4618802   0.0000000  )
        29           C   tau(  29) = (   0.1000000   0.5196152   0.0000000  )
        30           C   tau(  30) = (   0.1000000   0.6350853   0.0000000  )
        31           C   tau(  31) = (   0.0000000   0.6928203   0.0000000  )
        32           C   tau(  32) = (   0.0000000   0.8082904   0.0000000  )
        33           C   tau(  33) = (   0.6000000   0.0000000   0.0000000  )
        34           C   tau(  34) = (   0.6000000   0.1154701   0.0000000  )
        35           C   tau(  35) = (   0.5000000   0.1732051   0.0000000  )
        36           C   tau(  36) = (   0.5000000   0.2886751   0.0000000  )
        37           C   tau(  37) = (   0.4000000   0.3464102   0.0000000  )
        38           C   tau(  38) = (   0.4000000   0.4618802   0.0000000  )
        39           C   tau(  39) = (   0.3000000   0.5196152   0.0000000  )
        40           C   tau(  40) = (   0.3000000   0.6350853   0.0000000  )
        41           C   tau(  41) = (   0.2000000   0.6928203   0.0000000  )
        42           C   tau(  42) = (   0.2000000   0.8082904   0.0000000  )
        43           C   tau(  43) = (   0.8000000   0.0000000   0.0000000  )
        44           C   tau(  44) = (   0.8000000   0.1154701   0.0000000  )
        45           C   tau(  45) = (   0.7000000   0.1732051   0.0000000  )
        46           C   tau(  46) = (   0.7000000   0.2886751   0.0000000  )
        47           C   tau(  47) = (   0.6000000   0.3464102   0.0000000  )
        48           C   tau(  48) = (   0.6000000   0.4618802   0.0000000  )
        49           C   tau(  49) = (   0.5000000   0.5196152   0.0000000  )
        50           C   tau(  50) = (   0.5000000   0.6350853   0.0000000  )
        51           C   tau(  51) = (   0.4000000   0.6928203   0.0000000  )
        52           C   tau(  52) = (   0.4000000   0.8082904   0.0000000  )

   Crystallographic axes

     site n.     atom                  positions (cryst. coord.)
         1           H   tau(   1) = (  0.5028270  0.5333333  0.3000000  )
         2           H   tau(   2) = (  0.5638397  0.5333333  0.3000000  )
         3           C   tau(   3) = (  0.0000000  0.0000000  0.0000000  )
         4           C   tau(   4) = (  0.0666667  0.1333333  0.0000000  )
         5           C   tau(   5) = (  0.0000000  0.2000000  0.0000000  )
         6           C   tau(   6) = (  0.0666667  0.3333333  0.0000000  )
         7           C   tau(   7) = (  0.0000000  0.4000000  0.0000000  )
         8           C   tau(   8) = (  0.0666667  0.5333333  0.0000000  )
         9           C   tau(   9) = (  0.0000000  0.6000000  0.0000000  )
        10           C   tau(  10) = (  0.0666667  0.7333333  0.0000000  )
        11           C   tau(  11) = (  0.0000000  0.8000000  0.0000000  )
        12           C   tau(  12) = (  0.0666667  0.9333333  0.0000000  )
        13           C   tau(  13) = (  0.2000000  0.0000000  0.0000000  )
        14           C   tau(  14) = (  0.2666667  0.1333333  0.0000000  )
        15           C   tau(  15) = (  0.2000000  0.2000000  0.0000000  )
        16           C   tau(  16) = (  0.2666667  0.3333333  0.0000000  )
        17           C   tau(  17) = (  0.2000000  0.4000000  0.0000000  )
        18           C   tau(  18) = (  0.2666667  0.5333333  0.0000000  )
        19           C   tau(  19) = (  0.2000000  0.6000000  0.0000000  )
        20           C   tau(  20) = (  0.2666667  0.7333333  0.0000000  )
        21           C   tau(  21) = (  0.2000000  0.8000000  0.0000000  )
        22           C   tau(  22) = (  0.2666667  0.9333333  0.0000000  )
        23           C   tau(  23) = (  0.4000000  0.0000000  0.0000000  )
        24           C   tau(  24) = (  0.4666667  0.1333333  0.0000000  )
        25           C   tau(  25) = (  0.4000000  0.2000000  0.0000000  )
        26           C   tau(  26) = (  0.4666667  0.3333333  0.0000000  )
        27           C   tau(  27) = (  0.4000000  0.4000000  0.0000000  )
        28           Mn  tau(  28) = (  0.4666667  0.5333333  0.0000000  )
        29           C   tau(  29) = (  0.4000000  0.6000000  0.0000000  )
        30           C   tau(  30) = (  0.4666667  0.7333333  0.0000000  )
        31           C   tau(  31) = (  0.4000000  0.8000000  0.0000000  )
        32           C   tau(  32) = (  0.4666667  0.9333333  0.0000000  )
        33           C   tau(  33) = (  0.6000000  0.0000000  0.0000000  )
        34           C   tau(  34) = (  0.6666667  0.1333333  0.0000000  )
        35           C   tau(  35) = (  0.6000000  0.2000000  0.0000000  )
        36           C   tau(  36) = (  0.6666667  0.3333333  0.0000000  )
        37           C   tau(  37) = (  0.6000000  0.4000000  0.0000000  )
        38           C   tau(  38) = (  0.6666667  0.5333333  0.0000000  )
        39           C   tau(  39) = (  0.6000000  0.6000000  0.0000000  )
        40           C   tau(  40) = (  0.6666667  0.7333333  0.0000000  )
        41           C   tau(  41) = (  0.6000000  0.8000000  0.0000000  )
        42           C   tau(  42) = (  0.6666667  0.9333333  0.0000000  )
        43           C   tau(  43) = (  0.8000000  0.0000000  0.0000000  )
        44           C   tau(  44) = (  0.8666667  0.1333333  0.0000000  )
        45           C   tau(  45) = (  0.8000000  0.2000000  0.0000000  )
        46           C   tau(  46) = (  0.8666667  0.3333333  0.0000000  )
        47           C   tau(  47) = (  0.8000000  0.4000000  0.0000000  )
        48           C   tau(  48) = (  0.8666667  0.5333333  0.0000000  )
        49           C   tau(  49) = (  0.8000000  0.6000000  0.0000000  )
        50           C   tau(  50) = (  0.8666667  0.7333333  0.0000000  )
        51           C   tau(  51) = (  0.8000000  0.8000000  0.0000000  )
        52           C   tau(  52) = (  0.8666667  0.9333333  0.0000000  )

     number of k points=     1  Marzari-Vanderbilt smearing, width (Ry)=  0.0010
                       cart. coord. in units 2pi/alat
        k(    1) = (   0.0000000   0.0000000   0.0000000), wk =   2.0000000

                       cryst. coord.
        k(    1) = (   0.0000000   0.0000000   0.0000000), wk =   2.0000000

     Dense  grid:  1626001 G-vectors     FFT dimensions: ( 180, 180, 135)

     Smooth grid:   702581 G-vectors     FFT dimensions: ( 125, 125, 108)

     Dynamical RAM for                 wfc:      28.59 MB

     Dynamical RAM for     wfc (w. buffer):      28.59 MB

     Dynamical RAM for           str. fact:      12.41 MB

     Dynamical RAM for           local pot:       0.00 MB

     Dynamical RAM for          nlocal pot:      92.46 MB

     Dynamical RAM for                qrad:      19.73 MB

     Dynamical RAM for          rho,v,vnew:      29.46 MB

     Dynamical RAM for               rhoin:       9.82 MB

     Dynamical RAM for            rho*nmix:      66.16 MB

     Dynamical RAM for           G-vectors:      16.40 MB

     Dynamical RAM for          h,s,v(r/c):      12.00 MB

     Dynamical RAM for          <psi|beta>:       0.81 MB

     Dynamical RAM for                 psi:     114.35 MB

     Dynamical RAM for                hpsi:     114.35 MB

     Dynamical RAM for                spsi:     114.35 MB

     Dynamical RAM for      wfcinit/wfcrot:      93.90 MB

     Dynamical RAM for           addusdens:     971.75 MB

     Estimated static dynamical RAM per process >     320.00 MB

     Estimated max dynamical RAM per process >       1.26 GB

     Estimated total dynamical RAM >       7.57 GB

     Check: negative core charge=   -0.000002

     Initial potential from superposition of free atoms

     starting charge  212.80506, renormalised to  213.00000

     negative rho (up, down):  6.896E-05 0.000E+00


---------------------------------------------------------------------------------
Carrying out rVV10 run using the following parameters:
Nqs =      20    Nr_points =    1024   r_max =   100.000
b_value =  6.30000    beta =  0.00901
     q_mesh =  0.00010000  0.00030000  0.00058939  0.00100810
               0.00161396  0.00249058  0.00375900  0.00559430
               0.00824984  0.01209221  0.01765183  0.02569619
               0.03733578  0.05417739  0.07854596  0.11380545
               0.16482331  0.23864234  0.34545298  0.50000000

Gradients computed in Reciprocal space

---------------------------------------------------------------------------------


     Starting wfcs are  208 randomized atomic wfcs

     total cpu time spent up to now is       50.2 secs

     Self-consistent Calculation

     iteration #  1     ecut=    70.00 Ry     beta= 0.70
     Davidson diagonalization with overlap
     ethr =  1.00E-02,  avg # of iterations =  2.0

     negative rho (up, down):  1.317E-04 0.000E+00

     total cpu time spent up to now is      117.2 secs

     total energy              =    -823.09443383 Ry
     Harris-Foulkes estimate   =    -828.78611238 Ry
     estimated scf accuracy    <       8.38004245 Ry

     iteration #  2     ecut=    70.00 Ry     beta= 0.70
     Davidson diagonalization with overlap
     ethr =  3.93E-03,  avg # of iterations =  7.0

     negative rho (up, down):  1.615E-04 0.000E+00

     total cpu time spent up to now is      183.7 secs

     total energy              =    -815.62018464 Ry
     Harris-Foulkes estimate   =    -835.18279284 Ry
     estimated scf accuracy    <      80.47804789 Ry

     iteration #  3     ecut=    70.00 Ry     beta= 0.70
     Davidson diagonalization with overlap
     ethr =  3.93E-03,  avg # of iterations =  6.0

     negative rho (up, down):  2.156E-04 0.000E+00

     total cpu time spent up to now is      277.8 secs

     total energy              =    -825.00955645 Ry
     Harris-Foulkes estimate   =    -826.89569369 Ry
     estimated scf accuracy    <       8.79036053 Ry

     iteration #  4     ecut=    70.00 Ry     beta= 0.70
     Davidson diagonalization with overlap
     ethr =  3.93E-03,  avg # of iterations =  3.0

     negative rho (up, down):  2.407E-04 0.000E+00

     total cpu time spent up to now is      328.3 secs

     total energy              =    -825.67871639 Ry
     Harris-Foulkes estimate   =    -826.21796222 Ry
     estimated scf accuracy    <       1.55771256 Ry

     iteration #  5     ecut=    70.00 Ry     beta= 0.70
     Davidson diagonalization with overlap
     ethr =  7.31E-04,  avg # of iterations =  3.0

     negative rho (up, down):  2.613E-04 0.000E+00

     total cpu time spent up to now is      382.8 secs

     total energy              =    -825.86519682 Ry
     Harris-Foulkes estimate   =    -825.95456770 Ry
     estimated scf accuracy    <       0.31149695 Ry

     iteration #  6     ecut=    70.00 Ry     beta= 0.70
     Davidson diagonalization with overlap
     ethr =  1.46E-04,  avg # of iterations = 11.0

     negative rho (up, down):  2.825E-04 0.000E+00

     total cpu time spent up to now is      435.8 secs

     total energy              =    -825.88500449 Ry
     Harris-Foulkes estimate   =    -825.91476503 Ry
     estimated scf accuracy    <       0.18901271 Ry

     iteration #  7     ecut=    70.00 Ry     beta= 0.70
     Davidson diagonalization with overlap
     ethr =  8.87E-05,  avg # of iterations =  2.0

     negative rho (up, down):  3.244E-04 0.000E+00

     total cpu time spent up to now is      485.9 secs

     total energy              =    -825.86343204 Ry
     Harris-Foulkes estimate   =    -825.92022233 Ry
     estimated scf accuracy    <       0.48281807 Ry

     iteration #  8     ecut=    70.00 Ry     beta= 0.70
     Davidson diagonalization with overlap
     ethr =  8.87E-05,  avg # of iterations =  2.0

     negative rho (up, down):  4.642E-04 0.000E+00

     total cpu time spent up to now is      536.4 secs

     total energy              =    -825.89834924 Ry
     Harris-Foulkes estimate   =    -825.92041957 Ry
     estimated scf accuracy    <       0.29235001 Ry

     iteration #  9     ecut=    70.00 Ry     beta= 0.70
     Davidson diagonalization with overlap
     ethr =  8.87E-05,  avg # of iterations =  1.0

     negative rho (up, down):  5.303E-04 0.000E+00

     total cpu time spent up to now is      585.9 secs

     total energy              =    -825.89607418 Ry
     Harris-Foulkes estimate   =    -825.90397973 Ry
     estimated scf accuracy    <       0.18785394 Ry

     iteration # 10     ecut=    70.00 Ry     beta= 0.70
     Davidson diagonalization with overlap
     ethr =  8.82E-05,  avg # of iterations =  1.0

     negative rho (up, down):  5.904E-04 0.000E+00

     total cpu time spent up to now is      635.6 secs

     total energy              =    -825.89492055 Ry
     Harris-Foulkes estimate   =    -825.90204362 Ry
     estimated scf accuracy    <       0.07109765 Ry

     iteration # 11     ecut=    70.00 Ry     beta= 0.70
     Davidson diagonalization with overlap
     ethr =  3.34E-05,  avg # of iterations =  1.0

     negative rho (up, down):  5.898E-04 0.000E+00

     total cpu time spent up to now is      685.3 secs

     total energy              =    -825.89441945 Ry
     Harris-Foulkes estimate   =    -825.89662633 Ry
     estimated scf accuracy    <       0.04573892 Ry

     iteration # 12     ecut=    70.00 Ry     beta= 0.70
     Davidson diagonalization with overlap
     ethr =  2.15E-05,  avg # of iterations =  1.0

     negative rho (up, down):  5.898E-04 0.000E+00

     total cpu time spent up to now is      734.9 secs

     total energy              =    -825.89632744 Ry
     Harris-Foulkes estimate   =    -825.89760782 Ry
     estimated scf accuracy    <       0.16735858 Ry

     iteration # 13     ecut=    70.00 Ry     beta= 0.70
     Davidson diagonalization with overlap
     ethr =  2.15E-05,  avg # of iterations =  1.0

     negative rho (up, down):  6.004E-04 0.000E+00

     total cpu time spent up to now is      784.4 secs

     total energy              =    -825.89377163 Ry
     Harris-Foulkes estimate   =    -825.89721019 Ry
     estimated scf accuracy    <       0.23903855 Ry

     iteration # 14     ecut=    70.00 Ry     beta= 0.70
     Davidson diagonalization with overlap
     ethr =  2.15E-05,  avg # of iterations =  1.0

     negative rho (up, down):  6.159E-04 0.000E+00

     total cpu time spent up to now is      834.0 secs

     total energy              =    -825.89566765 Ry
     Harris-Foulkes estimate   =    -825.89687685 Ry
     estimated scf accuracy    <       0.04020517 Ry

     iteration # 15     ecut=    70.00 Ry     beta= 0.70
     Davidson diagonalization with overlap
     ethr =  1.89E-05,  avg # of iterations =  1.0

     negative rho (up, down):  6.250E-04 0.000E+00

     total cpu time spent up to now is      883.8 secs

     total energy              =    -825.89546130 Ry
     Harris-Foulkes estimate   =    -825.89680301 Ry
     estimated scf accuracy    <       0.09825610 Ry

     iteration # 16     ecut=    70.00 Ry     beta= 0.70
     Davidson diagonalization with overlap
     ethr =  1.89E-05,  avg # of iterations =  1.0

     negative rho (up, down):  6.228E-04 0.000E+00

     total cpu time spent up to now is      933.4 secs

     total energy              =    -825.89617857 Ry
     Harris-Foulkes estimate   =    -825.89647661 Ry
     estimated scf accuracy    <       0.04161039 Ry

     iteration # 17     ecut=    70.00 Ry     beta= 0.70
     Davidson diagonalization with overlap
     ethr =  1.89E-05,  avg # of iterations =  1.0

     negative rho (up, down):  6.296E-04 0.000E+00

     total cpu time spent up to now is      982.9 secs

     total energy              =    -825.89612079 Ry
     Harris-Foulkes estimate   =    -825.89628972 Ry
     estimated scf accuracy    <       0.01350306 Ry

     iteration # 18     ecut=    70.00 Ry     beta= 0.70
     Davidson diagonalization with overlap
     ethr =  6.34E-06,  avg # of iterations =  1.0

     negative rho (up, down):  6.339E-04 0.000E+00

     total cpu time spent up to now is     1032.6 secs

     total energy              =    -825.89615932 Ry
     Harris-Foulkes estimate   =    -825.89619829 Ry
     estimated scf accuracy    <       0.00091161 Ry

     iteration # 19     ecut=    70.00 Ry     beta= 0.70
     Davidson diagonalization with overlap
     ethr =  4.28E-07,  avg # of iterations =  1.0

     negative rho (up, down):  6.362E-04 0.000E+00

     total cpu time spent up to now is     1082.4 secs

     total energy              =    -825.89613710 Ry
     Harris-Foulkes estimate   =    -825.89617351 Ry
     estimated scf accuracy    <       0.00094341 Ry

     iteration # 20     ecut=    70.00 Ry     beta= 0.70
     Davidson diagonalization with overlap
     ethr =  4.28E-07,  avg # of iterations =  1.0

     negative rho (up, down):  6.352E-04 0.000E+00

     total cpu time spent up to now is     1132.1 secs

     total energy              =    -825.89612491 Ry
     Harris-Foulkes estimate   =    -825.89617080 Ry
     estimated scf accuracy    <       0.00243097 Ry

     iteration # 21     ecut=    70.00 Ry     beta= 0.70
     Davidson diagonalization with overlap
     ethr =  4.28E-07,  avg # of iterations =  1.0

     negative rho (up, down):  6.343E-04 0.000E+00

     total cpu time spent up to now is     1181.8 secs

     total energy              =    -825.89615290 Ry
     Harris-Foulkes estimate   =    -825.89615603 Ry
     estimated scf accuracy    <       0.00056629 Ry

     iteration # 22     ecut=    70.00 Ry     beta= 0.70
     Davidson diagonalization with overlap
     ethr =  2.66E-07,  avg # of iterations =  1.0

     negative rho (up, down):  6.497E-04 0.000E+00

     total cpu time spent up to now is     1231.4 secs

     total energy              =    -825.89591794 Ry
     Harris-Foulkes estimate   =    -825.89615778 Ry
     estimated scf accuracy    <       0.00093368 Ry

     iteration # 23     ecut=    70.00 Ry     beta= 0.70
     Davidson diagonalization with overlap
     ethr =  2.66E-07,  avg # of iterations =  3.0

     negative rho (up, down):  6.381E-04 0.000E+00

     total cpu time spent up to now is     1287.7 secs

     total energy              =    -825.89399184 Ry
     Harris-Foulkes estimate   =    -825.89627136 Ry
     estimated scf accuracy    <       0.05269888 Ry

     iteration # 24     ecut=    70.00 Ry     beta= 0.70
     Davidson diagonalization with overlap
     ethr =  2.66E-07,  avg # of iterations =  3.0

     negative rho (up, down):  6.386E-04 0.000E+00

     total cpu time spent up to now is     1343.7 secs

     total energy              =    -825.89610908 Ry
     Harris-Foulkes estimate   =    -825.89614424 Ry
     estimated scf accuracy    <       0.00238600 Ry

     iteration # 25     ecut=    70.00 Ry     beta= 0.70
     Davidson diagonalization with overlap
     ethr =  2.66E-07,  avg # of iterations =  1.0

     negative rho (up, down):  6.389E-04 0.000E+00

     total cpu time spent up to now is     1393.3 secs

     total energy              =    -825.89610763 Ry
     Harris-Foulkes estimate   =    -825.89612260 Ry
     estimated scf accuracy    <       0.00051206 Ry

     iteration # 26     ecut=    70.00 Ry     beta= 0.70
     Davidson diagonalization with overlap
     ethr =  2.40E-07,  avg # of iterations =  1.0

     negative rho (up, down):  6.389E-04 0.000E+00

     total cpu time spent up to now is     1442.8 secs

     total energy              =    -825.89610648 Ry
     Harris-Foulkes estimate   =    -825.89610867 Ry
     estimated scf accuracy    <       0.00080510 Ry

     iteration # 27     ecut=    70.00 Ry     beta= 0.70
     Davidson diagonalization with overlap
     ethr =  2.40E-07,  avg # of iterations =  1.0

     negative rho (up, down):  6.387E-04 0.000E+00

     total cpu time spent up to now is     1492.2 secs

     total energy              =    -825.89610853 Ry
     Harris-Foulkes estimate   =    -825.89610820 Ry
     estimated scf accuracy    <       0.00034387 Ry

     iteration # 28     ecut=    70.00 Ry     beta= 0.70
     Davidson diagonalization with overlap
     ethr =  1.61E-07,  avg # of iterations =  1.0

     negative rho (up, down):  6.387E-04 0.000E+00

     total cpu time spent up to now is     1541.7 secs

     total energy              =    -825.89610227 Ry
     Harris-Foulkes estimate   =    -825.89610898 Ry
     estimated scf accuracy    <       0.00042245 Ry

     iteration # 29     ecut=    70.00 Ry     beta= 0.70
     Davidson diagonalization with overlap
     ethr =  1.61E-07,  avg # of iterations =  1.0

     negative rho (up, down):  6.388E-04 0.000E+00

     total cpu time spent up to now is     1591.2 secs

     total energy              =    -825.89608470 Ry
     Harris-Foulkes estimate   =    -825.89610238 Ry
     estimated scf accuracy    <       0.00046058 Ry

     iteration # 30     ecut=    70.00 Ry     beta= 0.70
     Davidson diagonalization with overlap
     ethr =  1.61E-07,  avg # of iterations =  1.0

     negative rho (up, down):  6.390E-04 0.000E+00

     total cpu time spent up to now is     1640.6 secs

     total energy              =    -825.89607227 Ry
     Harris-Foulkes estimate   =    -825.89608374 Ry
     estimated scf accuracy    <       0.00058293 Ry

     iteration # 31     ecut=    70.00 Ry     beta= 0.70
     Davidson diagonalization with overlap
     ethr =  1.61E-07,  avg # of iterations =  1.0

     negative rho (up, down):  6.391E-04 0.000E+00

     total cpu time spent up to now is     1690.1 secs

     total energy              =    -825.89605461 Ry
     Harris-Foulkes estimate   =    -825.89607183 Ry
     estimated scf accuracy    <       0.00073424 Ry

     iteration # 32     ecut=    70.00 Ry     beta= 0.70
     Davidson diagonalization with overlap
     ethr =  1.61E-07,  avg # of iterations =  1.0

     negative rho (up, down):  6.381E-04 0.000E+00

     total cpu time spent up to now is     1739.5 secs

     total energy              =    -825.89635042 Ry
     Harris-Foulkes estimate   =    -825.89605350 Ry
     estimated scf accuracy    <       0.00095979 Ry

     iteration # 33     ecut=    70.00 Ry     beta= 0.70
     Davidson diagonalization with overlap
     ethr =  1.61E-07,  avg # of iterations =  3.0

     negative rho (up, down):  6.383E-04 0.000E+00

     total cpu time spent up to now is     1795.3 secs

     total energy              =    -825.89613642 Ry
     Harris-Foulkes estimate   =    -825.89629737 Ry
     estimated scf accuracy    <       0.00242099 Ry

     iteration # 34     ecut=    70.00 Ry     beta= 0.70
     Davidson diagonalization with overlap
     ethr =  1.61E-07,  avg # of iterations =  1.0

     negative rho (up, down):  6.383E-04 0.000E+00

     total cpu time spent up to now is     1844.5 secs

     total energy              =    -825.89623500 Ry
     Harris-Foulkes estimate   =    -825.89618302 Ry
     estimated scf accuracy    <       0.00147558 Ry

     iteration # 35     ecut=    70.00 Ry     beta= 0.70
     Davidson diagonalization with overlap
     ethr =  1.61E-07,  avg # of iterations =  1.0

     negative rho (up, down):  6.382E-04 0.000E+00

     total cpu time spent up to now is     1894.0 secs

     total energy              =    -825.89632749 Ry
     Harris-Foulkes estimate   =    -825.89624388 Ry
     estimated scf accuracy    <       0.00150033 Ry

     iteration # 36     ecut=    70.00 Ry     beta= 0.70
     Davidson diagonalization with overlap
     ethr =  1.61E-07,  avg # of iterations =  2.0

     negative rho (up, down):  6.381E-04 0.000E+00

     total cpu time spent up to now is     1943.9 secs

     total energy              =    -825.89644311 Ry
     Harris-Foulkes estimate   =    -825.89633642 Ry
     estimated scf accuracy    <       0.00217569 Ry

     iteration # 37     ecut=    70.00 Ry     beta= 0.70
     Davidson diagonalization with overlap
     ethr =  1.61E-07,  avg # of iterations =  2.0

     negative rho (up, down):  6.378E-04 0.000E+00

     total cpu time spent up to now is     1993.9 secs

     total energy              =    -825.89643348 Ry
     Harris-Foulkes estimate   =    -825.89646534 Ry
     estimated scf accuracy    <       0.00246973 Ry

     iteration # 38     ecut=    70.00 Ry     beta= 0.70
     Davidson diagonalization with overlap
     ethr =  1.61E-07,  avg # of iterations =  1.0

     negative rho (up, down):  6.380E-04 0.000E+00

     total cpu time spent up to now is     2043.5 secs

     total energy              =    -825.89641260 Ry
     Harris-Foulkes estimate   =    -825.89644843 Ry
     estimated scf accuracy    <       0.00303414 Ry

     iteration # 39     ecut=    70.00 Ry     beta= 0.70
     Davidson diagonalization with overlap
     ethr =  1.61E-07,  avg # of iterations =  1.0

     negative rho (up, down):  6.388E-04 0.000E+00

     total cpu time spent up to now is     2092.8 secs

     total energy              =    -825.89582532 Ry
     Harris-Foulkes estimate   =    -825.89641440 Ry
     estimated scf accuracy    <       0.00306214 Ry

     iteration # 40     ecut=    70.00 Ry     beta= 0.70
     Davidson diagonalization with overlap
     ethr =  1.61E-07,  avg # of iterations =  3.0

     negative rho (up, down):  6.391E-04 0.000E+00

     total cpu time spent up to now is     2155.0 secs

     total energy              =    -825.89561149 Ry
     Harris-Foulkes estimate   =    -825.89597139 Ry
     estimated scf accuracy    <       0.00164225 Ry

     iteration # 41     ecut=    70.00 Ry     beta= 0.70
     Davidson diagonalization with overlap
     ethr =  1.61E-07,  avg # of iterations =  3.0

     negative rho (up, down):  6.395E-04 0.000E+00

     total cpu time spent up to now is     2212.0 secs

     total energy              =    -825.88860086 Ry
     Harris-Foulkes estimate   =    -825.89790840 Ry
     estimated scf accuracy    <       0.31895324 Ry

     iteration # 42     ecut=    70.00 Ry     beta= 0.70
     Davidson diagonalization with overlap
     ethr =  1.61E-07,  avg # of iterations =  4.0

     negative rho (up, down):  6.386E-04 0.000E+00

     total cpu time spent up to now is     2281.0 secs

     total energy              =    -825.89623969 Ry
     Harris-Foulkes estimate   =    -825.89623324 Ry
     estimated scf accuracy    <       0.00105115 Ry

     iteration # 43     ecut=    70.00 Ry     beta= 0.70
     Davidson diagonalization with overlap
     ethr =  1.61E-07,  avg # of iterations =  1.0

     negative rho (up, down):  6.385E-04 0.000E+00

     total cpu time spent up to now is     2330.6 secs

     total energy              =    -825.89620245 Ry
     Harris-Foulkes estimate   =    -825.89624431 Ry
     estimated scf accuracy    <       0.00107215 Ry

     iteration # 44     ecut=    70.00 Ry     beta= 0.70
     Davidson diagonalization with overlap
     ethr =  1.61E-07,  avg # of iterations =  1.0

     negative rho (up, down):  6.385E-04 0.000E+00

     total cpu time spent up to now is     2380.1 secs

     total energy              =    -825.89625362 Ry
     Harris-Foulkes estimate   =    -825.89620513 Ry
     estimated scf accuracy    <       0.00106725 Ry

     iteration # 45     ecut=    70.00 Ry     beta= 0.70
     Davidson diagonalization with overlap
     ethr =  1.61E-07,  avg # of iterations =  1.0

     negative rho (up, down):  6.386E-04 0.000E+00

     total cpu time spent up to now is     2429.8 secs

     total energy              =    -825.89622916 Ry
     Harris-Foulkes estimate   =    -825.89625678 Ry
     estimated scf accuracy    <       0.00156976 Ry

     iteration # 46     ecut=    70.00 Ry     beta= 0.70
     Davidson diagonalization with overlap
     ethr =  1.61E-07,  avg # of iterations =  1.0

     negative rho (up, down):  6.386E-04 0.000E+00

     total cpu time spent up to now is     2479.2 secs

     total energy              =    -825.89620042 Ry
     Harris-Foulkes estimate   =    -825.89623002 Ry
     estimated scf accuracy    <       0.00137761 Ry

     iteration # 47     ecut=    70.00 Ry     beta= 0.70
     Davidson diagonalization with overlap
     ethr =  1.61E-07,  avg # of iterations =  1.0

     negative rho (up, down):  6.386E-04 0.000E+00

     total cpu time spent up to now is     2528.4 secs

     total energy              =    -825.89619053 Ry
     Harris-Foulkes estimate   =    -825.89620160 Ry
     estimated scf accuracy    <       0.00122477 Ry

     iteration # 48     ecut=    70.00 Ry     beta= 0.70
     Davidson diagonalization with overlap
     ethr =  1.61E-07,  avg # of iterations =  1.0

     negative rho (up, down):  6.386E-04 0.000E+00

     total cpu time spent up to now is     2578.5 secs

     total energy              =    -825.89618735 Ry
     Harris-Foulkes estimate   =    -825.89619087 Ry
     estimated scf accuracy    <       0.00100697 Ry

     iteration # 49     ecut=    70.00 Ry     beta= 0.70
     Davidson diagonalization with overlap
     ethr =  1.61E-07,  avg # of iterations =  1.0

     negative rho (up, down):  6.386E-04 0.000E+00

     total cpu time spent up to now is     2627.8 secs

     total energy              =    -825.89618899 Ry
     Harris-Foulkes estimate   =    -825.89618743 Ry
     estimated scf accuracy    <       0.00100867 Ry

     iteration # 50     ecut=    70.00 Ry     beta= 0.70
     Davidson diagonalization with overlap
     ethr =  1.61E-07,  avg # of iterations =  1.0

     negative rho (up, down):  6.390E-04 0.000E+00

     total cpu time spent up to now is     2677.3 secs

     total energy              =    -825.89596732 Ry
     Harris-Foulkes estimate   =    -825.89618914 Ry
     estimated scf accuracy    <       0.00098251 Ry

     iteration # 51     ecut=    70.00 Ry     beta= 0.70
     Davidson diagonalization with overlap
     ethr =  1.61E-07,  avg # of iterations =  3.0

     negative rho (up, down):  6.391E-04 0.000E+00

     total cpu time spent up to now is     2734.0 secs

     total energy              =    -825.89588097 Ry
     Harris-Foulkes estimate   =    -825.89593281 Ry
     estimated scf accuracy    <       0.00077810 Ry

     iteration # 52     ecut=    70.00 Ry     beta= 0.70
     Davidson diagonalization with overlap
     ethr =  1.61E-07,  avg # of iterations =  1.0

     negative rho (up, down):  6.389E-04 0.000E+00

     total cpu time spent up to now is     2783.1 secs

     total energy              =    -825.89581850 Ry
     Harris-Foulkes estimate   =    -825.89592316 Ry
     estimated scf accuracy    <       0.00129939 Ry

     iteration # 53     ecut=    70.00 Ry     beta= 0.70
     Davidson diagonalization with overlap
     ethr =  1.61E-07,  avg # of iterations =  2.0

     negative rho (up, down):  6.396E-04 0.000E+00

     total cpu time spent up to now is     2832.9 secs

     total energy              =    -825.89579308 Ry
     Harris-Foulkes estimate   =    -825.89614524 Ry
     estimated scf accuracy    <       0.04126810 Ry

     iteration # 54     ecut=    70.00 Ry     beta= 0.70
     Davidson diagonalization with overlap
     ethr =  1.61E-07,  avg # of iterations =  1.0

     negative rho (up, down):  6.391E-04 0.000E+00

     total cpu time spent up to now is     2882.2 secs

     total energy              =    -825.89593735 Ry
     Harris-Foulkes estimate   =    -825.89593847 Ry
     estimated scf accuracy    <       0.00257295 Ry

     iteration # 55     ecut=    70.00 Ry     beta= 0.70
     Davidson diagonalization with overlap
     ethr =  1.61E-07,  avg # of iterations =  1.0

     negative rho (up, down):  6.389E-04 0.000E+00

     total cpu time spent up to now is     2931.5 secs

     total energy              =    -825.89596078 Ry
     Harris-Foulkes estimate   =    -825.89594084 Ry
     estimated scf accuracy    <       0.00233071 Ry

     iteration # 56     ecut=    70.00 Ry     beta= 0.70
     Davidson diagonalization with overlap
     ethr =  1.61E-07,  avg # of iterations =  1.0

     negative rho (up, down):  6.388E-04 0.000E+00

     total cpu time spent up to now is     2980.9 secs

     total energy              =    -825.89592627 Ry
     Harris-Foulkes estimate   =    -825.89597062 Ry
     estimated scf accuracy    <       0.00307187 Ry

     iteration # 57     ecut=    70.00 Ry     beta= 0.70
     Davidson diagonalization with overlap
     ethr =  1.61E-07,  avg # of iterations =  1.0

     negative rho (up, down):  6.388E-04 0.000E+00

     total cpu time spent up to now is     3030.1 secs

     total energy              =    -825.89588191 Ry
     Harris-Foulkes estimate   =    -825.89594157 Ry
     estimated scf accuracy    <       0.00127332 Ry

     iteration # 58     ecut=    70.00 Ry     beta= 0.70
     Davidson diagonalization with overlap
     ethr =  1.61E-07,  avg # of iterations =  1.0

     negative rho (up, down):  6.389E-04 0.000E+00

     total cpu time spent up to now is     3079.3 secs

     total energy              =    -825.89590947 Ry
     Harris-Foulkes estimate   =    -825.89591233 Ry
     estimated scf accuracy    <       0.00005511 Ry

     iteration # 59     ecut=    70.00 Ry     beta= 0.70
     Davidson diagonalization with overlap
     ethr =  2.59E-08,  avg # of iterations =  1.0

     negative rho (up, down):  6.389E-04 0.000E+00

     total cpu time spent up to now is     3128.4 secs

     total energy              =    -825.89590921 Ry
     Harris-Foulkes estimate   =    -825.89591305 Ry
     estimated scf accuracy    <       0.00014709 Ry

     iteration # 60     ecut=    70.00 Ry     beta= 0.70
     Davidson diagonalization with overlap
     ethr =  2.59E-08,  avg # of iterations =  1.0

     negative rho (up, down):  6.389E-04 0.000E+00

     total cpu time spent up to now is     3177.8 secs

     total energy              =    -825.89591191 Ry
     Harris-Foulkes estimate   =    -825.89591347 Ry
     estimated scf accuracy    <       0.00021655 Ry

     iteration # 61     ecut=    70.00 Ry     beta= 0.70
     Davidson diagonalization with overlap
     ethr =  2.59E-08,  avg # of iterations =  1.0

     negative rho (up, down):  6.388E-04 0.000E+00

     total cpu time spent up to now is     3227.5 secs

     total energy              =    -825.89590796 Ry
     Harris-Foulkes estimate   =    -825.89591232 Ry
     estimated scf accuracy    <       0.00013200 Ry

     iteration # 62     ecut=    70.00 Ry     beta= 0.70
     Davidson diagonalization with overlap
     ethr =  2.59E-08,  avg # of iterations =  1.0

     negative rho (up, down):  6.388E-04 0.000E+00

     total cpu time spent up to now is     3277.5 secs

     total energy              =    -825.89590696 Ry
     Harris-Foulkes estimate   =    -825.89591621 Ry
     estimated scf accuracy    <       0.00032863 Ry

     iteration # 63     ecut=    70.00 Ry     beta= 0.70
     Davidson diagonalization with overlap
     ethr =  2.59E-08,  avg # of iterations =  1.0

     negative rho (up, down):  6.388E-04 0.000E+00

     total cpu time spent up to now is     3326.9 secs

     total energy              =    -825.89590883 Ry
     Harris-Foulkes estimate   =    -825.89591354 Ry
     estimated scf accuracy    <       0.00059685 Ry

     iteration # 64     ecut=    70.00 Ry     beta= 0.70
     Davidson diagonalization with overlap
     ethr =  2.59E-08,  avg # of iterations =  1.0

     negative rho (up, down):  6.388E-04 0.000E+00

     total cpu time spent up to now is     3376.2 secs

     total energy              =    -825.89590975 Ry
     Harris-Foulkes estimate   =    -825.89591249 Ry
     estimated scf accuracy    <       0.00016185 Ry

     iteration # 65     ecut=    70.00 Ry     beta= 0.70
     Davidson diagonalization with overlap
     ethr =  2.59E-08,  avg # of iterations =  1.0

     negative rho (up, down):  6.388E-04 0.000E+00

     total cpu time spent up to now is     3425.6 secs

     total energy              =    -825.89591087 Ry
     Harris-Foulkes estimate   =    -825.89591128 Ry
     estimated scf accuracy    <       0.00002646 Ry

     iteration # 66     ecut=    70.00 Ry     beta= 0.70
     Davidson diagonalization with overlap
     ethr =  1.24E-08,  avg # of iterations =  1.0

     negative rho (up, down):  6.388E-04 0.000E+00

     total cpu time spent up to now is     3475.0 secs

     total energy              =    -825.89591063 Ry
     Harris-Foulkes estimate   =    -825.89591150 Ry
     estimated scf accuracy    <       0.00002022 Ry

     iteration # 67     ecut=    70.00 Ry     beta= 0.70
     Davidson diagonalization with overlap
     ethr =  9.49E-09,  avg # of iterations =  1.0

     negative rho (up, down):  6.388E-04 0.000E+00

     total cpu time spent up to now is     3526.2 secs

     total energy              =    -825.89591039 Ry
     Harris-Foulkes estimate   =    -825.89591161 Ry
     estimated scf accuracy    <       0.00002478 Ry

     iteration # 68     ecut=    70.00 Ry     beta= 0.70
     Davidson diagonalization with overlap
     ethr =  9.49E-09,  avg # of iterations =  1.0

     negative rho (up, down):  6.388E-04 0.000E+00

     total cpu time spent up to now is     3575.8 secs

     total energy              =    -825.89591018 Ry
     Harris-Foulkes estimate   =    -825.89591218 Ry
     estimated scf accuracy    <       0.00010144 Ry

     iteration # 69     ecut=    70.00 Ry     beta= 0.70
     Davidson diagonalization with overlap
     ethr =  9.49E-09,  avg # of iterations =  1.0

     negative rho (up, down):  6.388E-04 0.000E+00

     total cpu time spent up to now is     3625.1 secs

     total energy              =    -825.89591071 Ry
     Harris-Foulkes estimate   =    -825.89591156 Ry
     estimated scf accuracy    <       0.00003184 Ry

     iteration # 70     ecut=    70.00 Ry     beta= 0.70
     Davidson diagonalization with overlap
     ethr =  9.49E-09,  avg # of iterations =  1.0

     negative rho (up, down):  6.388E-04 0.000E+00

     total cpu time spent up to now is     3674.1 secs

     End of self-consistent calculation

          k = 0.0000 0.0000 0.0000 ( 87777 PWs)   bands (ev):

   -80.0376 -49.6757 -49.6736 -48.2654 -19.7405 -18.9029 -18.9005 -18.8134
   -18.8025 -18.8012 -18.4444 -17.0457 -17.0446 -17.0432 -16.9523 -16.9512
   -16.6540 -16.1940 -16.1929 -16.0945 -16.0323 -16.0312 -15.3400 -14.0775
   -14.0764 -14.0070 -13.9702 -13.9698 -13.3160 -13.0383 -13.0375 -13.0080
   -12.7137 -12.7131 -12.2827 -11.8100 -11.8093 -11.6303 -11.3579 -11.3576
   -10.4396  -9.6285  -9.6282  -9.4122  -9.2847  -9.2844  -9.2016  -9.1686
    -9.1683  -9.1587  -8.6731  -8.6724  -8.1293  -8.1287  -8.0290  -7.8862
    -7.8072  -7.4031  -7.4028  -7.1540  -7.1273  -7.0891  -6.8742  -6.8728
    -6.8597  -6.7825  -6.7804  -6.7475  -6.6925  -6.5346  -6.5335  -6.5102
    -6.5015  -6.5003  -6.4532  -6.3533  -5.5035  -5.4940  -5.4875  -5.4865
    -5.2676  -5.2668  -4.9612  -4.8609  -4.8414  -4.6978  -4.6679  -4.6671
    -4.3508  -4.1516  -4.1506  -4.1105  -4.1084  -3.8062  -3.8052  -3.7316
    -3.6443  -3.6433  -3.1026  -2.6128  -2.6117  -1.7974  -1.7749  -1.7743
    -0.8293  -0.8197  -0.8190  -0.8160   0.9876   0.9970   0.9981   1.6597
     1.6614   1.6712   2.5653   2.8368   2.8384   2.9013   3.1196   3.1574
     3.4772   3.5682   3.5717   3.6115   3.6929   3.7833   3.7922   3.8031

     occupation numbers 
     1.0000   1.0000   1.0000   1.0000   1.0000   1.0000   1.0000   1.0000
     1.0000   1.0000   1.0000   1.0000   1.0000   1.0000   1.0000   1.0000
     1.0000   1.0000   1.0000   1.0000   1.0000   1.0000   1.0000   1.0000
     1.0000   1.0000   1.0000   1.0000   1.0000   1.0000   1.0000   1.0000
     1.0000   1.0000   1.0000   1.0000   1.0000   1.0000   1.0000   1.0000
     1.0000   1.0000   1.0000   1.0000   1.0000   1.0000   1.0000   1.0000
     1.0000   1.0000   1.0000   1.0000   1.0000   1.0000   1.0000   1.0000
     1.0000   1.0000   1.0000   1.0000   1.0000   1.0000   1.0000   1.0000
     1.0000   1.0000   1.0000   1.0000   1.0000   1.0000   1.0000   1.0000
     1.0000   1.0000   1.0000   1.0000   1.0000   1.0000   1.0000   1.0000
     1.0000   1.0000   1.0000   1.0000   1.0000   1.0000   1.0000   1.0000
     1.0000   1.0000   1.0000   1.0000   1.0000   1.0000   1.0000   1.0000
     1.0000   1.0000   1.0000   1.0000   1.0000   1.0000   1.0000   1.0000
     1.0089   0.5755   0.5361   0.3796   0.0000   0.0000   0.0000   0.0000
     0.0000   0.0000   0.0000   0.0000   0.0000   0.0000   0.0000   0.0000
     0.0000   0.0000   0.0000   0.0000   0.0000   0.0000   0.0000   0.0000

     the Fermi energy is    -0.8164 ev

!    total energy              =    -825.89591040 Ry
     Harris-Foulkes estimate   =    -825.89591116 Ry
     estimated scf accuracy    <       0.00000093 Ry

     The total energy is the sum of the following terms:

     one-electron contribution =   -2722.81503267 Ry
     hartree contribution      =    1406.33840816 Ry
     xc contribution           =    -259.59940659 Ry
     ewald contribution        =     750.18089846 Ry
     smearing contrib. (-TS)   =      -0.00077776 Ry

     convergence has been achieved in  70 iterations

     Writing output data file manganeso-baricentro-distance-3.0.save/

     init_run     :     47.80s CPU     49.00s WALL (       1 calls)
     electrons    :   3506.29s CPU   3624.06s WALL (       1 calls)

     Called by init_run:
     wfcinit      :     21.03s CPU     21.22s WALL (       1 calls)
     wfcinit:atom :      0.03s CPU      0.04s WALL (       1 calls)
     wfcinit:wfcr :     20.84s CPU     20.98s WALL (       1 calls)
     potinit      :     12.05s CPU     12.44s WALL (       1 calls)
     hinit0       :     10.08s CPU     10.12s WALL (       1 calls)

     Called by electrons:
     c_bands      :   2055.50s CPU   2067.32s WALL (      70 calls)
     sum_band     :    716.60s CPU    757.01s WALL (      70 calls)
     v_of_rho     :    432.96s CPU    459.56s WALL (      71 calls)
     v_h          :      4.99s CPU      5.15s WALL (      71 calls)
     v_xc         :    427.97s CPU    454.41s WALL (      71 calls)
     newd         :    287.98s CPU    327.36s WALL (      71 calls)
     mix_rho      :     15.15s CPU     15.39s WALL (      70 calls)

     Called by c_bands:
     init_us_2    :      6.25s CPU      6.32s WALL (     141 calls)
     cegterg      :   2040.18s CPU   2051.91s WALL (      70 calls)

     Called by sum_band:
     sum_band:bec :      0.06s CPU      0.06s WALL (      70 calls)
     addusdens    :    442.65s CPU    481.37s WALL (      70 calls)

     Called by *egterg:
     h_psi        :   1072.37s CPU   1080.43s WALL (     187 calls)
     s_psi        :    362.43s CPU    362.67s WALL (     187 calls)
     g_psi        :      1.06s CPU      1.06s WALL (     116 calls)
     cdiaghg      :     10.73s CPU     10.75s WALL (     186 calls)
     cegterg:over :    244.22s CPU    244.40s WALL (     116 calls)
     cegterg:upda :    133.19s CPU    133.98s WALL (     116 calls)
     cegterg:last :    117.34s CPU    117.42s WALL (      71 calls)

     Called by h_psi:
     h_psi:pot    :   1071.07s CPU   1077.73s WALL (     187 calls)
     h_psi:calbec :    362.38s CPU    362.60s WALL (     187 calls)
     vloc_psi     :    346.65s CPU    352.90s WALL (     187 calls)
     add_vuspsi   :    362.04s CPU    362.23s WALL (     187 calls)

     General routines
     calbec       :    531.92s CPU    532.26s WALL (     257 calls)
     fft          :    245.83s CPU    255.46s WALL (    4471 calls)
     ffts         :      2.54s CPU      2.62s WALL (     141 calls)
     fftw         :    375.06s CPU    381.88s WALL (   47398 calls)
     interpolate  :      6.03s CPU      6.18s WALL (      71 calls)

     Parallel routines
     fft_scatt_xy :    107.12s CPU    108.44s WALL (   52010 calls)
     fft_scatt_yz :    216.61s CPU    228.45s WALL (   52010 calls)

     PWSCF        :  59m15.35s CPU      1h 1m WALL


   This run was terminated on:  14: 1:57   4Sep2022            

=------------------------------------------------------------------------------=
   JOB DONE.
=------------------------------------------------------------------------------=
