
     Program PWSCF v.6.4.1 starts on 20Dec2022 at  3:36:40 

     This program is part of the open-source Quantum ESPRESSO suite
     for quantum simulation of materials; please cite
         "P. Giannozzi et al., J. Phys.:Condens. Matter 21 395502 (2009);
         "P. Giannozzi et al., J. Phys.:Condens. Matter 29 465901 (2017);
          URL http://www.quantum-espresso.org", 
     in publications or presentations arising from this work. More details at
     http://www.quantum-espresso.org/quote

     Parallel version (MPI), running on     6 processors

     MPI processes distributed on     1 nodes
     R & G space division:  proc/nbgrp/npool/nimage =       6
     Reading input from distance-3.5.in

     Current dimensions of program PWSCF are:
     Max number of different atomic species (ntypx) = 10
     Max number of k-points (npk) =  40000
     Max angular momentum in pseudopotentials (lmaxx) =  3

     IMPORTANT: XC functional enforced from input :
     Exchange-correlation      = RVV10 ( 1  4 13  4 3 0)
     Any further DFT definition will be discarded
     Please, verify this is what you really want

               file H.pbe-rrkjus.UPF: wavefunction(s)  1S renormalized

     Subspace diagonalization in iterative solution of the eigenvalue problem:
     a serial algorithm will be used


     Parallelization info
     --------------------
     sticks:   dense  smooth     PW     G-vecs:    dense   smooth      PW
     Min        3051    1746    432               270999   117096   14629
     Max        3053    1747    437               271001   117099   14630
     Sum       18313   10477   2611              1626001   702581   87777



     bravais-lattice index     =            4
     lattice parameter (alat)  =      23.2937  a.u.
     unit-cell volume          =    8879.8548 (a.u.)^3
     number of atoms/cell      =           52
     number of atomic types    =            3
     number of electrons       =       216.00
     number of Kohn-Sham states=          130
     kinetic-energy cutoff     =      70.0000  Ry
     charge density cutoff     =     490.0000  Ry
     convergence threshold     =      1.0E-06
     mixing beta               =       0.7000
     number of iterations used =            8  plain     mixing
     Exchange-correlation      = RVV10 ( 1  4 13  4 3 0)

     celldm(1)=  23.293684  celldm(2)=   0.000000  celldm(3)=   0.811261
     celldm(4)=   0.000000  celldm(5)=   0.000000  celldm(6)=   0.000000

     crystal axes: (cart. coord. in units of alat)
               a(1) = (   1.000000   0.000000   0.000000 )  
               a(2) = (  -0.500000   0.866025   0.000000 )  
               a(3) = (   0.000000   0.000000   0.811261 )  

     reciprocal axes: (cart. coord. in units 2 pi/alat)
               b(1) = (  1.000000  0.577350 -0.000000 )  
               b(2) = (  0.000000  1.154701  0.000000 )  
               b(3) = (  0.000000 -0.000000  1.232649 )  


     PseudoPot. # 1 for H  read from file:
     /home/cristian/Escritorio/Proyecto_Grafeno/pseudopotenciales/H.pbe-rrkjus.UPF
     MD5 check sum: 7cc9d459525c9a0585f487a71c3c9563
     Pseudo is Ultrasoft, Zval =  1.0
     Generated by new atomic code, or converted to UPF format
     Using radial grid of 1061 points,  2 beta functions with: 
                l(1) =   0
                l(2) =   0
     Q(r) pseudized with 0 coefficients 


     PseudoPot. # 2 for C  read from file:
     /home/cristian/Escritorio/Proyecto_Grafeno/pseudopotenciales/C.pbe-n-rrkjus_psl.1.0.0.UPF
     MD5 check sum: 1fdd950c42eb37d8afe3dd2f8d12311e
     Pseudo is Ultrasoft + core correction, Zval =  4.0
     Generated using "atomic" code by A. Dal Corso v.6.3MaX
     Using radial grid of 1073 points,  4 beta functions with: 
                l(1) =   0
                l(2) =   0
                l(3) =   1
                l(4) =   1
     Q(r) pseudized with 0 coefficients 


     PseudoPot. # 3 for Ni read from file:
     /home/cristian/Escritorio/Proyecto_Grafeno/pseudopotenciales/Ni.pbe-spn-rrkjus_psl.1.0.0.UPF
     MD5 check sum: 8b3fc9aac6dafe35f580d41bb18c3945
     Pseudo is Ultrasoft + core correction, Zval = 18.0
     Generated using "atomic" code by A. Dal Corso v.6.3
     Using radial grid of 1195 points,  6 beta functions with: 
                l(1) =   0
                l(2) =   0
                l(3) =   1
                l(4) =   1
                l(5) =   2
                l(6) =   2
     Q(r) pseudized with 0 coefficients 


     vdW kernel table read from file rVV10_kernel_table
     MD5 check sum: b8e2538accc0c0b3206b45ba4daaba6c

     atomic species   valence    mass     pseudopotential
        H              1.00     1.00794     H ( 1.00)
        C              4.00    12.01070     C ( 1.00)
        Ni            18.00    58.69340     Ni( 1.00)

     Starting magnetic structure 
     atomic species   magnetization
        H            0.500
        C            0.300
        Ni           0.800

      2 Sym. Ops. (no inversion) found


                                    s                        frac. trans.

      isym =  1     identity                                     

 cryst.   s( 1) = (     1          0          0      )
                  (     0          1          0      )
                  (     0          0          1      )

 cart.    s( 1) = (  1.0000000  0.0000000  0.0000000 )
                  (  0.0000000  1.0000000  0.0000000 )
                  (  0.0000000  0.0000000  1.0000000 )


      isym =  2     inv. 180 deg rotation - cryst. axis [1,1,0]  

 cryst.   s( 2) = (     0         -1          0      )
                  (    -1          0          0      )
                  (     0          0          1      )

 cart.    s( 2) = (  0.5000000 -0.8660254  0.0000000 )
                  ( -0.8660254 -0.5000000  0.0000000 )
                  (  0.0000000  0.0000000  1.0000000 )


     point group C_s (m)    
     there are  2 classes
     the character table:

       E     s    
A'     1.00  1.00
A''    1.00 -1.00

     the symmetry operations in each class and the name of the first element:

     E        1
          identity                                               
     s        2
          inv. 180 deg rotation - cryst. axis [1,1,0]            

   Cartesian axes

     site n.     atom                  positions (alat units)
         1           H   tau(   1) = (   0.2000000   0.4618802   0.2839414  )
         2           H   tau(   2) = (   0.2000000   0.4618802   0.3449541  )
         3           C   tau(   3) = (   0.0000000   0.0000000   0.0000000  )
         4           C   tau(   4) = (   0.0000000   0.1154701   0.0000000  )
         5           C   tau(   5) = (  -0.1000000   0.1732051   0.0000000  )
         6           C   tau(   6) = (  -0.1000000   0.2886751   0.0000000  )
         7           C   tau(   7) = (  -0.2000000   0.3464102   0.0000000  )
         8           C   tau(   8) = (  -0.2000000   0.4618802   0.0000000  )
         9           C   tau(   9) = (  -0.3000000   0.5196152   0.0000000  )
        10           C   tau(  10) = (  -0.3000000   0.6350853   0.0000000  )
        11           C   tau(  11) = (  -0.4000000   0.6928203   0.0000000  )
        12           C   tau(  12) = (  -0.4000000   0.8082904   0.0000000  )
        13           C   tau(  13) = (   0.2000000   0.0000000   0.0000000  )
        14           C   tau(  14) = (   0.2000000   0.1154701   0.0000000  )
        15           C   tau(  15) = (   0.1000000   0.1732051   0.0000000  )
        16           C   tau(  16) = (   0.1000000   0.2886751   0.0000000  )
        17           C   tau(  17) = (   0.0000000   0.3464102   0.0000000  )
        18           C   tau(  18) = (   0.0000000   0.4618802   0.0000000  )
        19           C   tau(  19) = (  -0.1000000   0.5196152   0.0000000  )
        20           C   tau(  20) = (  -0.1000000   0.6350853   0.0000000  )
        21           C   tau(  21) = (  -0.2000000   0.6928203   0.0000000  )
        22           C   tau(  22) = (  -0.2000000   0.8082904   0.0000000  )
        23           C   tau(  23) = (   0.4000000   0.0000000   0.0000000  )
        24           C   tau(  24) = (   0.4000000   0.1154701   0.0000000  )
        25           C   tau(  25) = (   0.3000000   0.1732051   0.0000000  )
        26           C   tau(  26) = (   0.3000000   0.2886751   0.0000000  )
        27           C   tau(  27) = (   0.2000000   0.3464102   0.0000000  )
        28           Ni  tau(  28) = (   0.2000000   0.4618802   0.0000000  )
        29           C   tau(  29) = (   0.1000000   0.5196152   0.0000000  )
        30           C   tau(  30) = (   0.1000000   0.6350853   0.0000000  )
        31           C   tau(  31) = (   0.0000000   0.6928203   0.0000000  )
        32           C   tau(  32) = (   0.0000000   0.8082904   0.0000000  )
        33           C   tau(  33) = (   0.6000000   0.0000000   0.0000000  )
        34           C   tau(  34) = (   0.6000000   0.1154701   0.0000000  )
        35           C   tau(  35) = (   0.5000000   0.1732051   0.0000000  )
        36           C   tau(  36) = (   0.5000000   0.2886751   0.0000000  )
        37           C   tau(  37) = (   0.4000000   0.3464102   0.0000000  )
        38           C   tau(  38) = (   0.4000000   0.4618802   0.0000000  )
        39           C   tau(  39) = (   0.3000000   0.5196152   0.0000000  )
        40           C   tau(  40) = (   0.3000000   0.6350853   0.0000000  )
        41           C   tau(  41) = (   0.2000000   0.6928203   0.0000000  )
        42           C   tau(  42) = (   0.2000000   0.8082904   0.0000000  )
        43           C   tau(  43) = (   0.8000000   0.0000000   0.0000000  )
        44           C   tau(  44) = (   0.8000000   0.1154701   0.0000000  )
        45           C   tau(  45) = (   0.7000000   0.1732051   0.0000000  )
        46           C   tau(  46) = (   0.7000000   0.2886751   0.0000000  )
        47           C   tau(  47) = (   0.6000000   0.3464102   0.0000000  )
        48           C   tau(  48) = (   0.6000000   0.4618802   0.0000000  )
        49           C   tau(  49) = (   0.5000000   0.5196152   0.0000000  )
        50           C   tau(  50) = (   0.5000000   0.6350853   0.0000000  )
        51           C   tau(  51) = (   0.4000000   0.6928203   0.0000000  )
        52           C   tau(  52) = (   0.4000000   0.8082904   0.0000000  )

   Crystallographic axes

     site n.     atom                  positions (cryst. coord.)
         1           H   tau(   1) = (  0.4666667  0.5333333  0.3500000  )
         2           H   tau(   2) = (  0.4666667  0.5333333  0.4252072  )
         3           C   tau(   3) = (  0.0000000  0.0000000  0.0000000  )
         4           C   tau(   4) = (  0.0666667  0.1333333  0.0000000  )
         5           C   tau(   5) = (  0.0000000  0.2000000  0.0000000  )
         6           C   tau(   6) = (  0.0666667  0.3333333  0.0000000  )
         7           C   tau(   7) = (  0.0000000  0.4000000  0.0000000  )
         8           C   tau(   8) = (  0.0666667  0.5333333  0.0000000  )
         9           C   tau(   9) = (  0.0000000  0.6000000  0.0000000  )
        10           C   tau(  10) = (  0.0666667  0.7333333  0.0000000  )
        11           C   tau(  11) = (  0.0000000  0.8000000  0.0000000  )
        12           C   tau(  12) = (  0.0666667  0.9333333  0.0000000  )
        13           C   tau(  13) = (  0.2000000  0.0000000  0.0000000  )
        14           C   tau(  14) = (  0.2666667  0.1333333  0.0000000  )
        15           C   tau(  15) = (  0.2000000  0.2000000  0.0000000  )
        16           C   tau(  16) = (  0.2666667  0.3333333  0.0000000  )
        17           C   tau(  17) = (  0.2000000  0.4000000  0.0000000  )
        18           C   tau(  18) = (  0.2666667  0.5333333  0.0000000  )
        19           C   tau(  19) = (  0.2000000  0.6000000  0.0000000  )
        20           C   tau(  20) = (  0.2666667  0.7333333  0.0000000  )
        21           C   tau(  21) = (  0.2000000  0.8000000  0.0000000  )
        22           C   tau(  22) = (  0.2666667  0.9333333  0.0000000  )
        23           C   tau(  23) = (  0.4000000  0.0000000  0.0000000  )
        24           C   tau(  24) = (  0.4666667  0.1333333  0.0000000  )
        25           C   tau(  25) = (  0.4000000  0.2000000  0.0000000  )
        26           C   tau(  26) = (  0.4666667  0.3333333  0.0000000  )
        27           C   tau(  27) = (  0.4000000  0.4000000  0.0000000  )
        28           Ni  tau(  28) = (  0.4666667  0.5333333  0.0000000  )
        29           C   tau(  29) = (  0.4000000  0.6000000  0.0000000  )
        30           C   tau(  30) = (  0.4666667  0.7333333  0.0000000  )
        31           C   tau(  31) = (  0.4000000  0.8000000  0.0000000  )
        32           C   tau(  32) = (  0.4666667  0.9333333  0.0000000  )
        33           C   tau(  33) = (  0.6000000  0.0000000  0.0000000  )
        34           C   tau(  34) = (  0.6666667  0.1333333  0.0000000  )
        35           C   tau(  35) = (  0.6000000  0.2000000  0.0000000  )
        36           C   tau(  36) = (  0.6666667  0.3333333  0.0000000  )
        37           C   tau(  37) = (  0.6000000  0.4000000  0.0000000  )
        38           C   tau(  38) = (  0.6666667  0.5333333  0.0000000  )
        39           C   tau(  39) = (  0.6000000  0.6000000  0.0000000  )
        40           C   tau(  40) = (  0.6666667  0.7333333  0.0000000  )
        41           C   tau(  41) = (  0.6000000  0.8000000  0.0000000  )
        42           C   tau(  42) = (  0.6666667  0.9333333  0.0000000  )
        43           C   tau(  43) = (  0.8000000  0.0000000  0.0000000  )
        44           C   tau(  44) = (  0.8666667  0.1333333  0.0000000  )
        45           C   tau(  45) = (  0.8000000  0.2000000  0.0000000  )
        46           C   tau(  46) = (  0.8666667  0.3333333  0.0000000  )
        47           C   tau(  47) = (  0.8000000  0.4000000  0.0000000  )
        48           C   tau(  48) = (  0.8666667  0.5333333  0.0000000  )
        49           C   tau(  49) = (  0.8000000  0.6000000  0.0000000  )
        50           C   tau(  50) = (  0.8666667  0.7333333  0.0000000  )
        51           C   tau(  51) = (  0.8000000  0.8000000  0.0000000  )
        52           C   tau(  52) = (  0.8666667  0.9333333  0.0000000  )

     number of k points=     1  Marzari-Vanderbilt smearing, width (Ry)=  0.0010
                       cart. coord. in units 2pi/alat
        k(    1) = (   0.0000000   0.0000000   0.0000000), wk =   1.0000000

                       cryst. coord.
        k(    1) = (   0.0000000   0.0000000   0.0000000), wk =   1.0000000

     Dense  grid:  1626001 G-vectors     FFT dimensions: ( 180, 180, 135)

     Smooth grid:   702581 G-vectors     FFT dimensions: ( 125, 125, 108)

     Dynamical RAM for                 wfc:      29.03 MB

     Dynamical RAM for     wfc (w. buffer):      87.10 MB

     Dynamical RAM for           str. fact:      12.41 MB

     Dynamical RAM for           local pot:       0.00 MB

     Dynamical RAM for          nlocal pot:      92.46 MB

     Dynamical RAM for                qrad:      19.73 MB

     Dynamical RAM for          rho,v,vnew:      58.92 MB

     Dynamical RAM for               rhoin:      19.64 MB

     Dynamical RAM for            rho*nmix:     132.32 MB

     Dynamical RAM for           G-vectors:      16.40 MB

     Dynamical RAM for          h,s,v(r/c):      12.38 MB

     Dynamical RAM for          <psi|beta>:       0.82 MB

     Dynamical RAM for                 psi:     116.14 MB

     Dynamical RAM for                hpsi:     116.14 MB

     Dynamical RAM for                spsi:     116.14 MB

     Dynamical RAM for      wfcinit/wfcrot:      93.90 MB

     Dynamical RAM for           addusdens:     975.89 MB

     Estimated static dynamical RAM per process >     489.64 MB

     Estimated max dynamical RAM per process >       1.43 GB

     Estimated total dynamical RAM >       8.59 GB
     Generating pointlists ...
     new r_m :   0.0252 (alat units)  0.5862 (a.u.) for type    1
     new r_m :   0.0476 (alat units)  1.1095 (a.u.) for type    2
     new r_m :   0.0476 (alat units)  1.1095 (a.u.) for type    3

     Check: negative core charge=   -0.000002

     Initial potential from superposition of free atoms

     starting charge  215.80530, renormalised to  216.00000

     negative rho (up, down):  1.298E-04 1.366E-02


---------------------------------------------------------------------------------
Carrying out rVV10 run using the following parameters:
Nqs =      20    Nr_points =    1024   r_max =   100.000
b_value =  6.30000    beta =  0.00901
     q_mesh =  0.00010000  0.00030000  0.00058939  0.00100810
               0.00161396  0.00249058  0.00375900  0.00559430
               0.00824984  0.01209221  0.01765183  0.02569619
               0.03733578  0.05417739  0.07854596  0.11380545
               0.16482331  0.23864234  0.34545298  0.50000000

Gradients computed in Reciprocal space

---------------------------------------------------------------------------------


     Starting wfcs are  208 randomized atomic wfcs

     total cpu time spent up to now is       74.2 secs

     Self-consistent Calculation

     iteration #  1     ecut=    70.00 Ry     beta= 0.70
     Davidson diagonalization with overlap
     ethr =  1.00E-02,  avg # of iterations =  4.0

     negative rho (up, down):  2.435E-04 1.207E-02

     total cpu time spent up to now is      205.0 secs

     total energy              =    -946.64580155 Ry
     Harris-Foulkes estimate   =    -949.74769295 Ry
     estimated scf accuracy    <      14.24293555 Ry

     total magnetization       =     6.00 Bohr mag/cell
     absolute magnetization    =     6.73 Bohr mag/cell

     iteration #  2     ecut=    70.00 Ry     beta= 0.70
     Davidson diagonalization with overlap
     ethr =  6.59E-03,  avg # of iterations =  4.0

     negative rho (up, down):  1.652E-03 1.401E-01

     total cpu time spent up to now is      324.3 secs

     total energy              =    -946.36640232 Ry
     Harris-Foulkes estimate   =    -957.50330890 Ry
     estimated scf accuracy    <      32.74846221 Ry

     total magnetization       =     4.00 Bohr mag/cell
     absolute magnetization    =     5.39 Bohr mag/cell

     iteration #  3     ecut=    70.00 Ry     beta= 0.70
     Davidson diagonalization with overlap
     ethr =  6.59E-03,  avg # of iterations =  4.0

     negative rho (up, down):  5.559E-02 4.634E-01

     total cpu time spent up to now is      437.4 secs

     total energy              =    -956.36448040 Ry
     Harris-Foulkes estimate   =    -954.90780748 Ry
     estimated scf accuracy    <     163.93534591 Ry

     total magnetization       =     2.00 Bohr mag/cell
     absolute magnetization    =    19.60 Bohr mag/cell

     iteration #  4     ecut=    70.00 Ry     beta= 0.70
     Davidson diagonalization with overlap
     ethr =  6.59E-03,  avg # of iterations =  2.0

     negative rho (up, down):  4.243E-02 5.236E-01

     total cpu time spent up to now is      531.6 secs

     total energy              =    -949.00655806 Ry
     Harris-Foulkes estimate   =    -956.79399996 Ry
     estimated scf accuracy    <     298.11841215 Ry

     total magnetization       =     0.00 Bohr mag/cell
     absolute magnetization    =    24.96 Bohr mag/cell

     iteration #  5     ecut=    70.00 Ry     beta= 0.70
     Davidson diagonalization with overlap
     ethr =  6.59E-03,  avg # of iterations =  2.5

     negative rho (up, down):  4.434E-02 4.869E-01

     total cpu time spent up to now is      634.7 secs

     total energy              =    -950.07008843 Ry
     Harris-Foulkes estimate   =    -952.04860617 Ry
     estimated scf accuracy    <      44.08335112 Ry

     total magnetization       =    -0.00 Bohr mag/cell
     absolute magnetization    =     9.83 Bohr mag/cell

     iteration #  6     ecut=    70.00 Ry     beta= 0.70
     Davidson diagonalization with overlap
     ethr =  6.59E-03,  avg # of iterations =  3.0

     negative rho (up, down):  1.029E-01 4.593E-01

     total cpu time spent up to now is      751.8 secs

     total energy              =    -950.02255384 Ry
     Harris-Foulkes estimate   =    -956.59975785 Ry
     estimated scf accuracy    <     295.03939148 Ry

     total magnetization       =     2.00 Bohr mag/cell
     absolute magnetization    =    27.11 Bohr mag/cell

     iteration #  7     ecut=    70.00 Ry     beta= 0.70
     Davidson diagonalization with overlap
     ethr =  6.59E-03,  avg # of iterations =  2.0

     negative rho (up, down):  1.046E-01 4.507E-01

     total cpu time spent up to now is      856.3 secs

     total energy              =    -950.19497333 Ry
     Harris-Foulkes estimate   =    -952.75819349 Ry
     estimated scf accuracy    <      67.36742918 Ry

     total magnetization       =     4.00 Bohr mag/cell
     absolute magnetization    =    14.66 Bohr mag/cell

     iteration #  8     ecut=    70.00 Ry     beta= 0.70
     Davidson diagonalization with overlap
     ethr =  6.59E-03,  avg # of iterations =  2.0

     negative rho (up, down):  2.419E-02 3.889E-01

     total cpu time spent up to now is      950.5 secs

     total energy              =    -951.75622723 Ry
     Harris-Foulkes estimate   =    -952.21595793 Ry
     estimated scf accuracy    <      10.16712491 Ry

     total magnetization       =    -0.00 Bohr mag/cell
     absolute magnetization    =     4.11 Bohr mag/cell

     iteration #  9     ecut=    70.00 Ry     beta= 0.70
     Davidson diagonalization with overlap
     ethr =  4.71E-03,  avg # of iterations =  2.0

     negative rho (up, down):  1.289E-02 2.384E-01

     total cpu time spent up to now is     1044.5 secs

     total energy              =    -951.88907260 Ry
     Harris-Foulkes estimate   =    -952.06186105 Ry
     estimated scf accuracy    <       2.64274660 Ry

     total magnetization       =    -0.00 Bohr mag/cell
     absolute magnetization    =     1.57 Bohr mag/cell

     iteration # 10     ecut=    70.00 Ry     beta= 0.70
     Davidson diagonalization with overlap
     ethr =  1.22E-03,  avg # of iterations =  3.0

     negative rho (up, down):  6.904E-02 2.345E-01

     total cpu time spent up to now is     1141.5 secs

     total energy              =    -951.81203452 Ry
     Harris-Foulkes estimate   =    -952.13498366 Ry
     estimated scf accuracy    <      11.72872428 Ry

     total magnetization       =    -0.00 Bohr mag/cell
     absolute magnetization    =     4.23 Bohr mag/cell

     iteration # 11     ecut=    70.00 Ry     beta= 0.70
     Davidson diagonalization with overlap
     ethr =  1.22E-03,  avg # of iterations =  2.0

     negative rho (up, down):  5.800E-02 1.357E-01

     total cpu time spent up to now is     1236.0 secs

     total energy              =    -951.85865740 Ry
     Harris-Foulkes estimate   =    -951.92861562 Ry
     estimated scf accuracy    <       2.58275204 Ry

     total magnetization       =     0.00 Bohr mag/cell
     absolute magnetization    =     1.93 Bohr mag/cell

     iteration # 12     ecut=    70.00 Ry     beta= 0.70
     Davidson diagonalization with overlap
     ethr =  1.20E-03,  avg # of iterations =  1.0

     negative rho (up, down):  2.509E-02 3.064E-01

     total cpu time spent up to now is     1328.5 secs

     total energy              =    -951.80547606 Ry
     Harris-Foulkes estimate   =    -951.88502240 Ry
     estimated scf accuracy    <       1.06638022 Ry

     total magnetization       =    -0.00 Bohr mag/cell
     absolute magnetization    =     1.56 Bohr mag/cell

     iteration # 13     ecut=    70.00 Ry     beta= 0.70
     Davidson diagonalization with overlap
     ethr =  4.94E-04,  avg # of iterations =  2.0

     negative rho (up, down):  2.628E-02 1.839E-02

     total cpu time spent up to now is     1424.6 secs

     total energy              =    -951.83149504 Ry
     Harris-Foulkes estimate   =    -951.91511762 Ry
     estimated scf accuracy    <       1.99570821 Ry

     total magnetization       =    -0.00 Bohr mag/cell
     absolute magnetization    =     1.13 Bohr mag/cell

     iteration # 14     ecut=    70.00 Ry     beta= 0.70
     Davidson diagonalization with overlap
     ethr =  4.94E-04,  avg # of iterations =  3.5

     negative rho (up, down):  4.901E-03 1.199E-02

     total cpu time spent up to now is     1520.2 secs

     total energy              =    -951.88466764 Ry
     Harris-Foulkes estimate   =    -951.88115748 Ry
     estimated scf accuracy    <       0.01804310 Ry

     total magnetization       =    -0.00 Bohr mag/cell
     absolute magnetization    =     0.26 Bohr mag/cell

     iteration # 15     ecut=    70.00 Ry     beta= 0.70
     Davidson diagonalization with overlap
     ethr =  8.35E-06,  avg # of iterations = 10.5

     negative rho (up, down):  1.629E-03 1.041E-01

     total cpu time spent up to now is     1632.2 secs

     total energy              =    -951.88601289 Ry
     Harris-Foulkes estimate   =    -951.88693972 Ry
     estimated scf accuracy    <       0.01493763 Ry

     total magnetization       =     0.00 Bohr mag/cell
     absolute magnetization    =     0.23 Bohr mag/cell

     iteration # 16     ecut=    70.00 Ry     beta= 0.70
     Davidson diagonalization with overlap
     ethr =  6.92E-06,  avg # of iterations =  3.0

     negative rho (up, down):  1.111E-03 8.405E-02

     total cpu time spent up to now is     1729.0 secs

     total energy              =    -951.88726470 Ry
     Harris-Foulkes estimate   =    -951.88705161 Ry
     estimated scf accuracy    <       0.00237781 Ry

     total magnetization       =    -0.00 Bohr mag/cell
     absolute magnetization    =     0.12 Bohr mag/cell

     iteration # 17     ecut=    70.00 Ry     beta= 0.70
     Davidson diagonalization with overlap
     ethr =  1.10E-06,  avg # of iterations =  4.0

     negative rho (up, down):  1.227E-03 1.195E-01

     total cpu time spent up to now is     1829.8 secs

     total energy              =    -951.88695119 Ry
     Harris-Foulkes estimate   =    -951.88750361 Ry
     estimated scf accuracy    <       0.01356753 Ry

     total magnetization       =    -0.00 Bohr mag/cell
     absolute magnetization    =     0.21 Bohr mag/cell

     iteration # 18     ecut=    70.00 Ry     beta= 0.70
     Davidson diagonalization with overlap
     ethr =  1.10E-06,  avg # of iterations =  2.5

     negative rho (up, down):  1.143E-03 7.163E-02

     total cpu time spent up to now is     1927.9 secs

     total energy              =    -951.88729155 Ry
     Harris-Foulkes estimate   =    -951.88709756 Ry
     estimated scf accuracy    <       0.00106826 Ry

     total magnetization       =    -0.00 Bohr mag/cell
     absolute magnetization    =     0.08 Bohr mag/cell

     iteration # 19     ecut=    70.00 Ry     beta= 0.70
     Davidson diagonalization with overlap
     ethr =  4.95E-07,  avg # of iterations =  2.0

     negative rho (up, down):  1.059E-03 2.947E-02

     total cpu time spent up to now is     2022.5 secs

     total energy              =    -951.88744706 Ry
     Harris-Foulkes estimate   =    -951.88734163 Ry
     estimated scf accuracy    <       0.00009457 Ry

     total magnetization       =    -0.00 Bohr mag/cell
     absolute magnetization    =     0.04 Bohr mag/cell

     iteration # 20     ecut=    70.00 Ry     beta= 0.70
     Davidson diagonalization with overlap
     ethr =  4.38E-08,  avg # of iterations =  2.5

     negative rho (up, down):  1.061E-03 1.253E-02

     total cpu time spent up to now is     2124.9 secs

     total energy              =    -951.88747791 Ry
     Harris-Foulkes estimate   =    -951.88746673 Ry
     estimated scf accuracy    <       0.00006858 Ry

     total magnetization       =    -0.00 Bohr mag/cell
     absolute magnetization    =     0.03 Bohr mag/cell

     iteration # 21     ecut=    70.00 Ry     beta= 0.70
     Davidson diagonalization with overlap
     ethr =  3.18E-08,  avg # of iterations =  2.5

     negative rho (up, down):  1.063E-03 5.925E-03

     total cpu time spent up to now is     2220.0 secs

     total energy              =    -951.88748432 Ry
     Harris-Foulkes estimate   =    -951.88748220 Ry
     estimated scf accuracy    <       0.00002068 Ry

     total magnetization       =     0.00 Bohr mag/cell
     absolute magnetization    =     0.02 Bohr mag/cell

     iteration # 22     ecut=    70.00 Ry     beta= 0.70
     Davidson diagonalization with overlap
     ethr =  9.57E-09,  avg # of iterations =  2.5

     negative rho (up, down):  1.061E-03 2.644E-03

     total cpu time spent up to now is     2317.5 secs

     total energy              =    -951.88748670 Ry
     Harris-Foulkes estimate   =    -951.88748646 Ry
     estimated scf accuracy    <       0.00000513 Ry

     total magnetization       =     0.00 Bohr mag/cell
     absolute magnetization    =     0.01 Bohr mag/cell

     iteration # 23     ecut=    70.00 Ry     beta= 0.70
     Davidson diagonalization with overlap
     ethr =  2.37E-09,  avg # of iterations =  2.5

     negative rho (up, down):  1.062E-03 7.057E-03

     total cpu time spent up to now is     2420.4 secs

     total energy              =    -951.88748523 Ry
     Harris-Foulkes estimate   =    -951.88748864 Ry
     estimated scf accuracy    <       0.00004413 Ry

     total magnetization       =     0.00 Bohr mag/cell
     absolute magnetization    =     0.02 Bohr mag/cell

     iteration # 24     ecut=    70.00 Ry     beta= 0.70
     Davidson diagonalization with overlap
     ethr =  2.37E-09,  avg # of iterations =  2.5

     negative rho (up, down):  1.060E-03 3.770E-03

     total cpu time spent up to now is     2518.7 secs

     total energy              =    -951.88748859 Ry
     Harris-Foulkes estimate   =    -951.88748631 Ry
     estimated scf accuracy    <       0.00000483 Ry

     total magnetization       =    -0.00 Bohr mag/cell
     absolute magnetization    =     0.01 Bohr mag/cell

     iteration # 25     ecut=    70.00 Ry     beta= 0.70
     Davidson diagonalization with overlap
     ethr =  2.24E-09,  avg # of iterations =  3.0

     negative rho (up, down):  1.061E-03 3.024E-02

     total cpu time spent up to now is     2624.6 secs

     total energy              =    -951.88746973 Ry
     Harris-Foulkes estimate   =    -951.88749359 Ry
     estimated scf accuracy    <       0.00038109 Ry

     total magnetization       =    -0.00 Bohr mag/cell
     absolute magnetization    =     0.03 Bohr mag/cell

     iteration # 26     ecut=    70.00 Ry     beta= 0.70
     Davidson diagonalization with overlap
     ethr =  2.24E-09,  avg # of iterations =  3.0

     negative rho (up, down):  1.061E-03 1.250E-02

     total cpu time spent up to now is     2728.2 secs

     total energy              =    -951.88748513 Ry
     Harris-Foulkes estimate   =    -951.88747414 Ry
     estimated scf accuracy    <       0.00000777 Ry

     total magnetization       =     0.00 Bohr mag/cell
     absolute magnetization    =     0.01 Bohr mag/cell

     iteration # 27     ecut=    70.00 Ry     beta= 0.70
     Davidson diagonalization with overlap
     ethr =  2.24E-09,  avg # of iterations =  2.0

     negative rho (up, down):  1.060E-03 8.916E-05

     Magnetic moment per site:
     atom:    1    charge:    0.2107    magn:   -0.0000    constr:    0.0000
     atom:    2    charge:    0.2115    magn:   -0.0000    constr:    0.0000
     atom:    3    charge:    1.7155    magn:    0.0001    constr:    0.0000
     atom:    4    charge:    1.7152    magn:   -0.0000    constr:    0.0000
     atom:    5    charge:    1.7168    magn:   -0.0000    constr:    0.0000
     atom:    6    charge:    1.7146    magn:    0.0000    constr:    0.0000
     atom:    7    charge:    1.7168    magn:   -0.0000    constr:    0.0000
     atom:    8    charge:    1.7152    magn:   -0.0000    constr:    0.0000
     atom:    9    charge:    1.7155    magn:    0.0001    constr:    0.0000
     atom:   10    charge:    1.7176    magn:   -0.0001    constr:    0.0000
     atom:   11    charge:    1.7156    magn:    0.0001    constr:    0.0000
     atom:   12    charge:    1.7176    magn:   -0.0001    constr:    0.0000
     atom:   13    charge:    1.7156    magn:    0.0001    constr:    0.0000
     atom:   14    charge:    1.7175    magn:   -0.0001    constr:    0.0000
     atom:   15    charge:    1.7117    magn:    0.0001    constr:    0.0000
     atom:   16    charge:    1.7114    magn:   -0.0000    constr:    0.0000
     atom:   17    charge:    1.7206    magn:    0.0000    constr:    0.0000
     atom:   18    charge:    1.7114    magn:   -0.0000    constr:    0.0000
     atom:   19    charge:    1.7118    magn:    0.0000    constr:    0.0000
     atom:   20    charge:    1.7175    magn:   -0.0001    constr:    0.0000
     atom:   21    charge:    1.7156    magn:    0.0001    constr:    0.0000
     atom:   22    charge:    1.7176    magn:   -0.0001    constr:    0.0000
     atom:   23    charge:    1.7155    magn:    0.0001    constr:    0.0000
     atom:   24    charge:    1.7152    magn:   -0.0000    constr:    0.0000
     atom:   25    charge:    1.7117    magn:    0.0000    constr:    0.0000
     atom:   26    charge:    1.7114    magn:   -0.0000    constr:    0.0000
     atom:   27    charge:    1.8182    magn:    0.0000    constr:    0.0000
     atom:   28    charge:   13.4053    magn:    0.0001    constr:    0.0000
     atom:   29    charge:    1.8182    magn:    0.0000    constr:    0.0000
     atom:   30    charge:    1.7114    magn:   -0.0000    constr:    0.0000
     atom:   31    charge:    1.7118    magn:    0.0000    constr:    0.0000
     atom:   32    charge:    1.7152    magn:   -0.0000    constr:    0.0000
     atom:   33    charge:    1.7168    magn:   -0.0000    constr:    0.0000
     atom:   34    charge:    1.7154    magn:    0.0000    constr:    0.0000
     atom:   35    charge:    1.7168    magn:   -0.0000    constr:    0.0000
     atom:   36    charge:    1.7146    magn:    0.0000    constr:    0.0000
     atom:   37    charge:    1.7206    magn:   -0.0000    constr:    0.0000
     atom:   38    charge:    1.7114    magn:   -0.0000    constr:    0.0000
     atom:   39    charge:    1.8182    magn:    0.0000    constr:    0.0000
     atom:   40    charge:    1.7114    magn:   -0.0000    constr:    0.0000
     atom:   41    charge:    1.7206    magn:    0.0000    constr:    0.0000
     atom:   42    charge:    1.7146    magn:    0.0000    constr:    0.0000
     atom:   43    charge:    1.7168    magn:   -0.0000    constr:    0.0000
     atom:   44    charge:    1.7154    magn:    0.0000    constr:    0.0000
     atom:   45    charge:    1.7212    magn:   -0.0000    constr:    0.0000
     atom:   46    charge:    1.7154    magn:    0.0000    constr:    0.0000
     atom:   47    charge:    1.7168    magn:   -0.0000    constr:    0.0000
     atom:   48    charge:    1.7152    magn:   -0.0000    constr:    0.0000
     atom:   49    charge:    1.7117    magn:    0.0000    constr:    0.0000
     atom:   50    charge:    1.7175    magn:   -0.0001    constr:    0.0000
     atom:   51    charge:    1.7117    magn:    0.0001    constr:    0.0000
     atom:   52    charge:    1.7152    magn:   -0.0000    constr:    0.0000

     total cpu time spent up to now is     2823.7 secs

     End of self-consistent calculation

 ------ SPIN UP ------------


          k = 0.0000 0.0000 0.0000 ( 87777 PWs)   bands (ev):

  -107.9232 -69.0914 -69.0914 -67.0077 -19.8267 -19.0074 -19.0073 -18.8884
   -18.8884 -18.8035 -18.7366 -17.1634 -17.1634 -17.1284 -17.0794 -17.0794
   -16.7534 -16.3125 -16.3125 -16.1658 -16.1658 -16.1524 -15.6704 -14.3110
   -14.3110 -14.1503 -14.0163 -14.0163 -13.5145 -13.1286 -13.1286 -13.0769
   -12.9010 -12.9010 -12.5008 -12.0763 -12.0762 -11.7124 -11.5684 -11.5684
   -10.9348 -10.4331 -10.4331  -9.5776  -9.3657  -9.3657  -9.2264  -9.2114
    -9.2114  -9.1967  -8.9530  -8.9530  -8.5934  -8.5934  -8.4581  -7.9434
    -7.9020  -7.8481  -7.8481  -7.6643  -7.5417  -7.5417  -7.4486  -7.4486
    -6.8464  -6.8213  -6.8213  -6.7542  -6.7140  -6.6193  -6.6193  -6.5553
    -6.5502  -6.5502  -6.5175  -6.4846  -6.4259  -6.4259  -6.3753  -6.2896
    -6.2896  -5.5467  -5.5467  -5.0307  -4.9496  -4.8427  -4.8427  -4.7576
    -4.7161  -4.7161  -4.4277  -4.3988  -4.3987  -3.8361  -3.8361  -3.7643
    -3.7588  -3.7588  -3.7327  -3.4200  -3.4200  -3.3512  -1.8916  -1.8061
    -1.8061  -1.5903  -1.5902  -1.1586   0.1049   0.1052   0.9045   0.9630
     0.9630   1.2124   1.2125   1.5482   2.5063   2.8032   2.8032   2.8525
     3.0397   3.0397   3.4230   3.6091   3.6092   3.7477   3.7478   3.7722
     3.8582   4.0555

     occupation numbers 
     1.0000   1.0000   1.0000   1.0000   1.0000   1.0000   1.0000   1.0000
     1.0000   1.0000   1.0000   1.0000   1.0000   1.0000   1.0000   1.0000
     1.0000   1.0000   1.0000   1.0000   1.0000   1.0000   1.0000   1.0000
     1.0000   1.0000   1.0000   1.0000   1.0000   1.0000   1.0000   1.0000
     1.0000   1.0000   1.0000   1.0000   1.0000   1.0000   1.0000   1.0000
     1.0000   1.0000   1.0000   1.0000   1.0000   1.0000   1.0000   1.0000
     1.0000   1.0000   1.0000   1.0000   1.0000   1.0000   1.0000   1.0000
     1.0000   1.0000   1.0000   1.0000   1.0000   1.0000   1.0000   1.0000
     1.0000   1.0000   1.0000   1.0000   1.0000   1.0000   1.0000   1.0000
     1.0000   1.0000   1.0000   1.0000   1.0000   1.0000   1.0000   1.0000
     1.0000   1.0000   1.0000   1.0000   1.0000   1.0000   1.0000   1.0000
     1.0000   1.0000   1.0000   1.0000   1.0000   1.0000   1.0000   1.0000
     1.0000   1.0000   1.0000   1.0000   1.0000   1.0000   1.0000   1.0000
     1.0000   1.0000   1.0000   1.0000   0.0000   0.0000   0.0000   0.0000
     0.0000   0.0000   0.0000   0.0000   0.0000   0.0000   0.0000   0.0000
     0.0000   0.0000   0.0000   0.0000   0.0000   0.0000   0.0000   0.0000
     0.0000   0.0000

 ------ SPIN DOWN ----------


          k = 0.0000 0.0000 0.0000 ( 87777 PWs)   bands (ev):

  -107.9230 -69.0912 -69.0912 -67.0075 -19.8267 -19.0074 -19.0073 -18.8885
   -18.8884 -18.8035 -18.7366 -17.1634 -17.1634 -17.1284 -17.0794 -17.0794
   -16.7534 -16.3125 -16.3124 -16.1658 -16.1658 -16.1524 -15.6703 -14.3111
   -14.3111 -14.1503 -14.0162 -14.0162 -13.5145 -13.1286 -13.1286 -13.0770
   -12.9010 -12.9010 -12.5008 -12.0763 -12.0763 -11.7124 -11.5683 -11.5683
   -10.9348 -10.4332 -10.4331  -9.5776  -9.3657  -9.3657  -9.2265  -9.2115
    -9.2115  -9.1967  -8.9530  -8.9529  -8.5934  -8.5933  -8.4581  -7.9434
    -7.9020  -7.8480  -7.8480  -7.6643  -7.5417  -7.5417  -7.4486  -7.4486
    -6.8464  -6.8214  -6.8214  -6.7543  -6.7140  -6.6193  -6.6192  -6.5553
    -6.5502  -6.5502  -6.5176  -6.4846  -6.4259  -6.4259  -6.3753  -6.2896
    -6.2896  -5.5467  -5.5467  -5.0307  -4.9495  -4.8426  -4.8426  -4.7576
    -4.7161  -4.7161  -4.4277  -4.3988  -4.3988  -3.8361  -3.8361  -3.7644
    -3.7588  -3.7588  -3.7327  -3.4201  -3.4200  -3.3511  -1.8918  -1.8058
    -1.8058  -1.5906  -1.5906  -1.1587   0.1048   0.1052   0.9044   0.9631
     0.9632   1.2123   1.2124   1.5481   2.5062   2.8030   2.8030   2.8523
     3.0397   3.0397   3.4231   3.6089   3.6090   3.7474   3.7477   3.7721
     3.8581   4.0555

     occupation numbers 
     1.0000   1.0000   1.0000   1.0000   1.0000   1.0000   1.0000   1.0000
     1.0000   1.0000   1.0000   1.0000   1.0000   1.0000   1.0000   1.0000
     1.0000   1.0000   1.0000   1.0000   1.0000   1.0000   1.0000   1.0000
     1.0000   1.0000   1.0000   1.0000   1.0000   1.0000   1.0000   1.0000
     1.0000   1.0000   1.0000   1.0000   1.0000   1.0000   1.0000   1.0000
     1.0000   1.0000   1.0000   1.0000   1.0000   1.0000   1.0000   1.0000
     1.0000   1.0000   1.0000   1.0000   1.0000   1.0000   1.0000   1.0000
     1.0000   1.0000   1.0000   1.0000   1.0000   1.0000   1.0000   1.0000
     1.0000   1.0000   1.0000   1.0000   1.0000   1.0000   1.0000   1.0000
     1.0000   1.0000   1.0000   1.0000   1.0000   1.0000   1.0000   1.0000
     1.0000   1.0000   1.0000   1.0000   1.0000   1.0000   1.0000   1.0000
     1.0000   1.0000   1.0000   1.0000   1.0000   1.0000   1.0000   1.0000
     1.0000   1.0000   1.0000   1.0000   1.0000   1.0000   1.0000   1.0000
     1.0000   1.0000   1.0000   1.0000   0.0000   0.0000   0.0000   0.0000
     0.0000   0.0000   0.0000   0.0000   0.0000   0.0000   0.0000   0.0000
     0.0000   0.0000   0.0000   0.0000   0.0000   0.0000   0.0000   0.0000
     0.0000   0.0000

     the Fermi energy is    -0.2935 ev

!    total energy              =    -951.88748830 Ry
     Harris-Foulkes estimate   =    -951.88748563 Ry
     estimated scf accuracy    <       0.00000099 Ry

     The total energy is the sum of the following terms:

     one-electron contribution =   -2967.30535579 Ry
     hartree contribution      =    1526.29505196 Ry
     xc contribution           =    -265.71535987 Ry
     ewald contribution        =     754.83817539 Ry
     smearing contrib. (-TS)   =       0.00000000 Ry

     total magnetization       =    -0.00 Bohr mag/cell
     absolute magnetization    =     0.01 Bohr mag/cell

     convergence has been achieved in  27 iterations

     Writing output data file distance-3.5.save/

     init_run     :     71.80s CPU     73.08s WALL (       1 calls)
     electrons    :   2701.45s CPU   2749.60s WALL (       1 calls)

     Called by init_run:
     wfcinit      :     41.49s CPU     41.75s WALL (       1 calls)
     wfcinit:atom :      0.05s CPU      0.09s WALL (       2 calls)
     wfcinit:wfcr :     41.07s CPU     41.24s WALL (       2 calls)
     potinit      :     12.50s CPU     12.98s WALL (       1 calls)
     hinit0       :      9.31s CPU      9.34s WALL (       1 calls)

     Called by electrons:
     c_bands      :   1730.15s CPU   1739.00s WALL (      27 calls)
     sum_band     :    563.07s CPU    579.15s WALL (      27 calls)
     v_of_rho     :    201.57s CPU    211.68s WALL (      28 calls)
     v_h          :      2.11s CPU      2.18s WALL (      28 calls)
     v_xc         :    199.46s CPU    209.50s WALL (      28 calls)
     newd         :    202.56s CPU    216.22s WALL (      28 calls)
     mix_rho      :     12.02s CPU     12.19s WALL (      27 calls)

     Called by c_bands:
     init_us_2    :      5.05s CPU      5.09s WALL (     110 calls)
     cegterg      :   1717.91s CPU   1726.68s WALL (      54 calls)

     Called by sum_band:
     sum_band:bec :      0.04s CPU      0.04s WALL (      54 calls)
     addusdens    :    348.17s CPU    362.78s WALL (      27 calls)

     Called by *egterg:
     h_psi        :    905.25s CPU    911.44s WALL (     215 calls)
     s_psi        :    304.84s CPU    305.00s WALL (     215 calls)
     g_psi        :      0.99s CPU      0.99s WALL (     159 calls)
     cdiaghg      :     14.84s CPU     14.84s WALL (     213 calls)
     cegterg:over :    210.98s CPU    211.11s WALL (     159 calls)
     cegterg:upda :    129.07s CPU    129.69s WALL (     159 calls)
     cegterg:last :     93.80s CPU     93.83s WALL (      54 calls)

     Called by h_psi:
     h_psi:pot    :    904.21s CPU    909.32s WALL (     215 calls)
     h_psi:calbec :    304.69s CPU    304.84s WALL (     215 calls)
     vloc_psi     :    294.74s CPU    299.57s WALL (     215 calls)
     add_vuspsi   :    304.78s CPU    304.91s WALL (     215 calls)

     General routines
     calbec       :    436.18s CPU    436.39s WALL (     269 calls)
     fft          :    112.71s CPU    116.92s WALL (    2094 calls)
     ffts         :      1.95s CPU      2.06s WALL (     110 calls)
     fftw         :    313.68s CPU    318.98s WALL (   39604 calls)
     interpolate  :      4.74s CPU      4.87s WALL (      56 calls)

     Parallel routines
     fft_scatt_xy :     77.97s CPU     79.00s WALL (   41808 calls)
     fft_scatt_yz :    140.17s CPU    146.94s WALL (   41808 calls)

     PWSCF        :  46m14.61s CPU  47m 4.43s WALL


   This run was terminated on:   4:23:44  20Dec2022            

=------------------------------------------------------------------------------=
   JOB DONE.
=------------------------------------------------------------------------------=
