
     Program PWSCF v.6.4.1 starts on 20Dec2022 at  6:51:22 

     This program is part of the open-source Quantum ESPRESSO suite
     for quantum simulation of materials; please cite
         "P. Giannozzi et al., J. Phys.:Condens. Matter 21 395502 (2009);
         "P. Giannozzi et al., J. Phys.:Condens. Matter 29 465901 (2017);
          URL http://www.quantum-espresso.org", 
     in publications or presentations arising from this work. More details at
     http://www.quantum-espresso.org/quote

     Parallel version (MPI), running on     6 processors

     MPI processes distributed on     1 nodes
     R & G space division:  proc/nbgrp/npool/nimage =       6
     Reading input from distance-2.6.in

     Current dimensions of program PWSCF are:
     Max number of different atomic species (ntypx) = 10
     Max number of k-points (npk) =  40000
     Max angular momentum in pseudopotentials (lmaxx) =  3

     IMPORTANT: XC functional enforced from input :
     Exchange-correlation      = RVV10 ( 1  4 13  4 3 0)
     Any further DFT definition will be discarded
     Please, verify this is what you really want

               file H.pbe-rrkjus.UPF: wavefunction(s)  1S renormalized

     Subspace diagonalization in iterative solution of the eigenvalue problem:
     a serial algorithm will be used


     Parallelization info
     --------------------
     sticks:   dense  smooth     PW     G-vecs:    dense   smooth      PW
     Min        3051    1746    432               270999   117096   14629
     Max        3053    1747    437               271001   117099   14630
     Sum       18313   10477   2611              1626001   702581   87777



     bravais-lattice index     =            4
     lattice parameter (alat)  =      23.2937  a.u.
     unit-cell volume          =    8879.8548 (a.u.)^3
     number of atoms/cell      =           52
     number of atomic types    =            3
     number of electrons       =       216.00
     number of Kohn-Sham states=          130
     kinetic-energy cutoff     =      70.0000  Ry
     charge density cutoff     =     490.0000  Ry
     convergence threshold     =      1.0E-06
     mixing beta               =       0.7000
     number of iterations used =            8  plain     mixing
     Exchange-correlation      = RVV10 ( 1  4 13  4 3 0)

     celldm(1)=  23.293684  celldm(2)=   0.000000  celldm(3)=   0.811261
     celldm(4)=   0.000000  celldm(5)=   0.000000  celldm(6)=   0.000000

     crystal axes: (cart. coord. in units of alat)
               a(1) = (   1.000000   0.000000   0.000000 )  
               a(2) = (  -0.500000   0.866025   0.000000 )  
               a(3) = (   0.000000   0.000000   0.811261 )  

     reciprocal axes: (cart. coord. in units 2 pi/alat)
               b(1) = (  1.000000  0.577350 -0.000000 )  
               b(2) = (  0.000000  1.154701  0.000000 )  
               b(3) = (  0.000000 -0.000000  1.232649 )  


     PseudoPot. # 1 for H  read from file:
     /home/cristian/Escritorio/Proyecto_Grafeno/pseudopotenciales/H.pbe-rrkjus.UPF
     MD5 check sum: 7cc9d459525c9a0585f487a71c3c9563
     Pseudo is Ultrasoft, Zval =  1.0
     Generated by new atomic code, or converted to UPF format
     Using radial grid of 1061 points,  2 beta functions with: 
                l(1) =   0
                l(2) =   0
     Q(r) pseudized with 0 coefficients 


     PseudoPot. # 2 for C  read from file:
     /home/cristian/Escritorio/Proyecto_Grafeno/pseudopotenciales/C.pbe-n-rrkjus_psl.1.0.0.UPF
     MD5 check sum: 1fdd950c42eb37d8afe3dd2f8d12311e
     Pseudo is Ultrasoft + core correction, Zval =  4.0
     Generated using "atomic" code by A. Dal Corso v.6.3MaX
     Using radial grid of 1073 points,  4 beta functions with: 
                l(1) =   0
                l(2) =   0
                l(3) =   1
                l(4) =   1
     Q(r) pseudized with 0 coefficients 


     PseudoPot. # 3 for Ni read from file:
     /home/cristian/Escritorio/Proyecto_Grafeno/pseudopotenciales/Ni.pbe-spn-rrkjus_psl.1.0.0.UPF
     MD5 check sum: 8b3fc9aac6dafe35f580d41bb18c3945
     Pseudo is Ultrasoft + core correction, Zval = 18.0
     Generated using "atomic" code by A. Dal Corso v.6.3
     Using radial grid of 1195 points,  6 beta functions with: 
                l(1) =   0
                l(2) =   0
                l(3) =   1
                l(4) =   1
                l(5) =   2
                l(6) =   2
     Q(r) pseudized with 0 coefficients 


     vdW kernel table read from file rVV10_kernel_table
     MD5 check sum: b8e2538accc0c0b3206b45ba4daaba6c

     atomic species   valence    mass     pseudopotential
        H              1.00     1.00794     H ( 1.00)
        C              4.00    12.01070     C ( 1.00)
        Ni            18.00    58.69340     Ni( 1.00)

     Starting magnetic structure 
     atomic species   magnetization
        H            0.500
        C            0.300
        Ni           0.800

      2 Sym. Ops. (no inversion) found


                                    s                        frac. trans.

      isym =  1     identity                                     

 cryst.   s( 1) = (     1          0          0      )
                  (     0          1          0      )
                  (     0          0          1      )

 cart.    s( 1) = (  1.0000000  0.0000000  0.0000000 )
                  (  0.0000000  1.0000000  0.0000000 )
                  (  0.0000000  0.0000000  1.0000000 )


      isym =  2     inv. 180 deg rotation - cryst. axis [1,1,0]  

 cryst.   s( 2) = (     0         -1          0      )
                  (    -1          0          0      )
                  (     0          0          1      )

 cart.    s( 2) = (  0.5000000 -0.8660254  0.0000000 )
                  ( -0.8660254 -0.5000000  0.0000000 )
                  (  0.0000000  0.0000000  1.0000000 )


     point group C_s (m)    
     there are  2 classes
     the character table:

       E     s    
A'     1.00  1.00
A''    1.00 -1.00

     the symmetry operations in each class and the name of the first element:

     E        1
          identity                                               
     s        2
          inv. 180 deg rotation - cryst. axis [1,1,0]            

   Cartesian axes

     site n.     atom                  positions (alat units)
         1           H   tau(   1) = (   0.2000000   0.4618802   0.2109279  )
         2           H   tau(   2) = (   0.2000000   0.4618802   0.2719406  )
         3           C   tau(   3) = (   0.0000000   0.0000000   0.0000000  )
         4           C   tau(   4) = (   0.0000000   0.1154701   0.0000000  )
         5           C   tau(   5) = (  -0.1000000   0.1732051   0.0000000  )
         6           C   tau(   6) = (  -0.1000000   0.2886751   0.0000000  )
         7           C   tau(   7) = (  -0.2000000   0.3464102   0.0000000  )
         8           C   tau(   8) = (  -0.2000000   0.4618802   0.0000000  )
         9           C   tau(   9) = (  -0.3000000   0.5196152   0.0000000  )
        10           C   tau(  10) = (  -0.3000000   0.6350853   0.0000000  )
        11           C   tau(  11) = (  -0.4000000   0.6928203   0.0000000  )
        12           C   tau(  12) = (  -0.4000000   0.8082904   0.0000000  )
        13           C   tau(  13) = (   0.2000000   0.0000000   0.0000000  )
        14           C   tau(  14) = (   0.2000000   0.1154701   0.0000000  )
        15           C   tau(  15) = (   0.1000000   0.1732051   0.0000000  )
        16           C   tau(  16) = (   0.1000000   0.2886751   0.0000000  )
        17           C   tau(  17) = (   0.0000000   0.3464102   0.0000000  )
        18           C   tau(  18) = (   0.0000000   0.4618802   0.0000000  )
        19           C   tau(  19) = (  -0.1000000   0.5196152   0.0000000  )
        20           C   tau(  20) = (  -0.1000000   0.6350853   0.0000000  )
        21           C   tau(  21) = (  -0.2000000   0.6928203   0.0000000  )
        22           C   tau(  22) = (  -0.2000000   0.8082904   0.0000000  )
        23           C   tau(  23) = (   0.4000000   0.0000000   0.0000000  )
        24           C   tau(  24) = (   0.4000000   0.1154701   0.0000000  )
        25           C   tau(  25) = (   0.3000000   0.1732051   0.0000000  )
        26           C   tau(  26) = (   0.3000000   0.2886751   0.0000000  )
        27           C   tau(  27) = (   0.2000000   0.3464102   0.0000000  )
        28           Ni  tau(  28) = (   0.2000000   0.4618802   0.0000000  )
        29           C   tau(  29) = (   0.1000000   0.5196152   0.0000000  )
        30           C   tau(  30) = (   0.1000000   0.6350853   0.0000000  )
        31           C   tau(  31) = (   0.0000000   0.6928203   0.0000000  )
        32           C   tau(  32) = (   0.0000000   0.8082904   0.0000000  )
        33           C   tau(  33) = (   0.6000000   0.0000000   0.0000000  )
        34           C   tau(  34) = (   0.6000000   0.1154701   0.0000000  )
        35           C   tau(  35) = (   0.5000000   0.1732051   0.0000000  )
        36           C   tau(  36) = (   0.5000000   0.2886751   0.0000000  )
        37           C   tau(  37) = (   0.4000000   0.3464102   0.0000000  )
        38           C   tau(  38) = (   0.4000000   0.4618802   0.0000000  )
        39           C   tau(  39) = (   0.3000000   0.5196152   0.0000000  )
        40           C   tau(  40) = (   0.3000000   0.6350853   0.0000000  )
        41           C   tau(  41) = (   0.2000000   0.6928203   0.0000000  )
        42           C   tau(  42) = (   0.2000000   0.8082904   0.0000000  )
        43           C   tau(  43) = (   0.8000000   0.0000000   0.0000000  )
        44           C   tau(  44) = (   0.8000000   0.1154701   0.0000000  )
        45           C   tau(  45) = (   0.7000000   0.1732051   0.0000000  )
        46           C   tau(  46) = (   0.7000000   0.2886751   0.0000000  )
        47           C   tau(  47) = (   0.6000000   0.3464102   0.0000000  )
        48           C   tau(  48) = (   0.6000000   0.4618802   0.0000000  )
        49           C   tau(  49) = (   0.5000000   0.5196152   0.0000000  )
        50           C   tau(  50) = (   0.5000000   0.6350853   0.0000000  )
        51           C   tau(  51) = (   0.4000000   0.6928203   0.0000000  )
        52           C   tau(  52) = (   0.4000000   0.8082904   0.0000000  )

   Crystallographic axes

     site n.     atom                  positions (cryst. coord.)
         1           H   tau(   1) = (  0.4666667  0.5333333  0.2600000  )
         2           H   tau(   2) = (  0.4666667  0.5333333  0.3352072  )
         3           C   tau(   3) = (  0.0000000  0.0000000  0.0000000  )
         4           C   tau(   4) = (  0.0666667  0.1333333  0.0000000  )
         5           C   tau(   5) = (  0.0000000  0.2000000  0.0000000  )
         6           C   tau(   6) = (  0.0666667  0.3333333  0.0000000  )
         7           C   tau(   7) = (  0.0000000  0.4000000  0.0000000  )
         8           C   tau(   8) = (  0.0666667  0.5333333  0.0000000  )
         9           C   tau(   9) = (  0.0000000  0.6000000  0.0000000  )
        10           C   tau(  10) = (  0.0666667  0.7333333  0.0000000  )
        11           C   tau(  11) = (  0.0000000  0.8000000  0.0000000  )
        12           C   tau(  12) = (  0.0666667  0.9333333  0.0000000  )
        13           C   tau(  13) = (  0.2000000  0.0000000  0.0000000  )
        14           C   tau(  14) = (  0.2666667  0.1333333  0.0000000  )
        15           C   tau(  15) = (  0.2000000  0.2000000  0.0000000  )
        16           C   tau(  16) = (  0.2666667  0.3333333  0.0000000  )
        17           C   tau(  17) = (  0.2000000  0.4000000  0.0000000  )
        18           C   tau(  18) = (  0.2666667  0.5333333  0.0000000  )
        19           C   tau(  19) = (  0.2000000  0.6000000  0.0000000  )
        20           C   tau(  20) = (  0.2666667  0.7333333  0.0000000  )
        21           C   tau(  21) = (  0.2000000  0.8000000  0.0000000  )
        22           C   tau(  22) = (  0.2666667  0.9333333  0.0000000  )
        23           C   tau(  23) = (  0.4000000  0.0000000  0.0000000  )
        24           C   tau(  24) = (  0.4666667  0.1333333  0.0000000  )
        25           C   tau(  25) = (  0.4000000  0.2000000  0.0000000  )
        26           C   tau(  26) = (  0.4666667  0.3333333  0.0000000  )
        27           C   tau(  27) = (  0.4000000  0.4000000  0.0000000  )
        28           Ni  tau(  28) = (  0.4666667  0.5333333  0.0000000  )
        29           C   tau(  29) = (  0.4000000  0.6000000  0.0000000  )
        30           C   tau(  30) = (  0.4666667  0.7333333  0.0000000  )
        31           C   tau(  31) = (  0.4000000  0.8000000  0.0000000  )
        32           C   tau(  32) = (  0.4666667  0.9333333  0.0000000  )
        33           C   tau(  33) = (  0.6000000  0.0000000  0.0000000  )
        34           C   tau(  34) = (  0.6666667  0.1333333  0.0000000  )
        35           C   tau(  35) = (  0.6000000  0.2000000  0.0000000  )
        36           C   tau(  36) = (  0.6666667  0.3333333  0.0000000  )
        37           C   tau(  37) = (  0.6000000  0.4000000  0.0000000  )
        38           C   tau(  38) = (  0.6666667  0.5333333  0.0000000  )
        39           C   tau(  39) = (  0.6000000  0.6000000  0.0000000  )
        40           C   tau(  40) = (  0.6666667  0.7333333  0.0000000  )
        41           C   tau(  41) = (  0.6000000  0.8000000  0.0000000  )
        42           C   tau(  42) = (  0.6666667  0.9333333  0.0000000  )
        43           C   tau(  43) = (  0.8000000  0.0000000  0.0000000  )
        44           C   tau(  44) = (  0.8666667  0.1333333  0.0000000  )
        45           C   tau(  45) = (  0.8000000  0.2000000  0.0000000  )
        46           C   tau(  46) = (  0.8666667  0.3333333  0.0000000  )
        47           C   tau(  47) = (  0.8000000  0.4000000  0.0000000  )
        48           C   tau(  48) = (  0.8666667  0.5333333  0.0000000  )
        49           C   tau(  49) = (  0.8000000  0.6000000  0.0000000  )
        50           C   tau(  50) = (  0.8666667  0.7333333  0.0000000  )
        51           C   tau(  51) = (  0.8000000  0.8000000  0.0000000  )
        52           C   tau(  52) = (  0.8666667  0.9333333  0.0000000  )

     number of k points=     1  Marzari-Vanderbilt smearing, width (Ry)=  0.0010
                       cart. coord. in units 2pi/alat
        k(    1) = (   0.0000000   0.0000000   0.0000000), wk =   1.0000000

                       cryst. coord.
        k(    1) = (   0.0000000   0.0000000   0.0000000), wk =   1.0000000

     Dense  grid:  1626001 G-vectors     FFT dimensions: ( 180, 180, 135)

     Smooth grid:   702581 G-vectors     FFT dimensions: ( 125, 125, 108)

     Dynamical RAM for                 wfc:      29.03 MB

     Dynamical RAM for     wfc (w. buffer):      87.10 MB

     Dynamical RAM for           str. fact:      12.41 MB

     Dynamical RAM for           local pot:       0.00 MB

     Dynamical RAM for          nlocal pot:      92.46 MB

     Dynamical RAM for                qrad:      19.73 MB

     Dynamical RAM for          rho,v,vnew:      58.92 MB

     Dynamical RAM for               rhoin:      19.64 MB

     Dynamical RAM for            rho*nmix:     132.32 MB

     Dynamical RAM for           G-vectors:      16.40 MB

     Dynamical RAM for          h,s,v(r/c):      12.38 MB

     Dynamical RAM for          <psi|beta>:       0.82 MB

     Dynamical RAM for                 psi:     116.14 MB

     Dynamical RAM for                hpsi:     116.14 MB

     Dynamical RAM for                spsi:     116.14 MB

     Dynamical RAM for      wfcinit/wfcrot:      93.90 MB

     Dynamical RAM for           addusdens:     975.89 MB

     Estimated static dynamical RAM per process >     489.64 MB

     Estimated max dynamical RAM per process >       1.43 GB

     Estimated total dynamical RAM >       8.59 GB
     Generating pointlists ...
     new r_m :   0.0252 (alat units)  0.5862 (a.u.) for type    1
     new r_m :   0.0476 (alat units)  1.1095 (a.u.) for type    2
     new r_m :   0.0476 (alat units)  1.1095 (a.u.) for type    3

     Check: negative core charge=   -0.000002

     Initial potential from superposition of free atoms

     starting charge  215.80530, renormalised to  216.00000

     negative rho (up, down):  1.453E-04 1.575E-02


---------------------------------------------------------------------------------
Carrying out rVV10 run using the following parameters:
Nqs =      20    Nr_points =    1024   r_max =   100.000
b_value =  6.30000    beta =  0.00901
     q_mesh =  0.00010000  0.00030000  0.00058939  0.00100810
               0.00161396  0.00249058  0.00375900  0.00559430
               0.00824984  0.01209221  0.01765183  0.02569619
               0.03733578  0.05417739  0.07854596  0.11380545
               0.16482331  0.23864234  0.34545298  0.50000000

Gradients computed in Reciprocal space

---------------------------------------------------------------------------------


     Starting wfcs are  208 randomized atomic wfcs

     total cpu time spent up to now is       77.9 secs

     Self-consistent Calculation

     iteration #  1     ecut=    70.00 Ry     beta= 0.70
     Davidson diagonalization with overlap
     ethr =  1.00E-02,  avg # of iterations =  4.5

     negative rho (up, down):  2.797E-04 1.376E-02

     total cpu time spent up to now is      209.9 secs

     total energy              =    -946.88631753 Ry
     Harris-Foulkes estimate   =    -949.68448110 Ry
     estimated scf accuracy    <      13.94109243 Ry

     total magnetization       =     6.00 Bohr mag/cell
     absolute magnetization    =     6.71 Bohr mag/cell

     iteration #  2     ecut=    70.00 Ry     beta= 0.70
     Davidson diagonalization with overlap
     ethr =  6.45E-03,  avg # of iterations =  3.5

     negative rho (up, down):  1.217E-02 2.758E-01

     total cpu time spent up to now is      326.1 secs

     total energy              =    -949.76137477 Ry
     Harris-Foulkes estimate   =    -956.78624112 Ry
     estimated scf accuracy    <      39.47058787 Ry

     total magnetization       =     4.00 Bohr mag/cell
     absolute magnetization    =     8.39 Bohr mag/cell

     iteration #  3     ecut=    70.00 Ry     beta= 0.70
     Davidson diagonalization with overlap
     ethr =  6.45E-03,  avg # of iterations =  3.5

     negative rho (up, down):  2.431E-02 5.344E-01

     total cpu time spent up to now is      437.6 secs

     total energy              =    -952.07211086 Ry
     Harris-Foulkes estimate   =    -962.01762621 Ry
     estimated scf accuracy    <     579.51081660 Ry

     total magnetization       =    -0.00 Bohr mag/cell
     absolute magnetization    =    34.60 Bohr mag/cell

     iteration #  4     ecut=    70.00 Ry     beta= 0.70
     Davidson diagonalization with overlap
     ethr =  6.45E-03,  avg # of iterations =  2.5

     negative rho (up, down):  1.243E-03 5.127E-01

     total cpu time spent up to now is      540.5 secs

     total energy              =    -944.49996959 Ry
     Harris-Foulkes estimate   =    -954.67696738 Ry
     estimated scf accuracy    <     160.49264855 Ry

     total magnetization       =     2.00 Bohr mag/cell
     absolute magnetization    =    19.61 Bohr mag/cell

     iteration #  5     ecut=    70.00 Ry     beta= 0.70
     Davidson diagonalization with overlap
     ethr =  6.45E-03,  avg # of iterations =  3.5

     negative rho (up, down):  4.435E-02 2.847E-01

     total cpu time spent up to now is      653.6 secs

     total energy              =    -950.95119822 Ry
     Harris-Foulkes estimate   =    -952.67678840 Ry
     estimated scf accuracy    <      81.18374847 Ry

     total magnetization       =     0.00 Bohr mag/cell
     absolute magnetization    =    13.46 Bohr mag/cell

     iteration #  6     ecut=    70.00 Ry     beta= 0.70
     Davidson diagonalization with overlap
     ethr =  6.45E-03,  avg # of iterations =  2.5

     negative rho (up, down):  8.096E-02 4.253E-01

     total cpu time spent up to now is      763.7 secs

     total energy              =    -953.28671362 Ry
     Harris-Foulkes estimate   =    -954.56858795 Ry
     estimated scf accuracy    <     156.25249967 Ry

     total magnetization       =     3.79 Bohr mag/cell
     absolute magnetization    =    20.50 Bohr mag/cell

     iteration #  7     ecut=    70.00 Ry     beta= 0.70
     Davidson diagonalization with overlap
     ethr =  6.45E-03,  avg # of iterations =  2.0

     negative rho (up, down):  1.127E-01 4.096E-01

     total cpu time spent up to now is      856.9 secs

     total energy              =    -949.01383561 Ry
     Harris-Foulkes estimate   =    -953.42883849 Ry
     estimated scf accuracy    <      98.61835896 Ry

     total magnetization       =     4.00 Bohr mag/cell
     absolute magnetization    =    16.84 Bohr mag/cell

     iteration #  8     ecut=    70.00 Ry     beta= 0.70
     Davidson diagonalization with overlap
     ethr =  6.45E-03,  avg # of iterations =  2.0

     negative rho (up, down):  1.456E-02 3.590E-01

     total cpu time spent up to now is      956.7 secs

     total energy              =    -951.69666829 Ry
     Harris-Foulkes estimate   =    -951.78536374 Ry
     estimated scf accuracy    <       4.45764343 Ry

     total magnetization       =     0.00 Bohr mag/cell
     absolute magnetization    =     1.75 Bohr mag/cell

     iteration #  9     ecut=    70.00 Ry     beta= 0.70
     Davidson diagonalization with overlap
     ethr =  2.06E-03,  avg # of iterations =  3.0

     negative rho (up, down):  2.611E-02 2.231E-01

     total cpu time spent up to now is     1053.6 secs

     total energy              =    -951.83086529 Ry
     Harris-Foulkes estimate   =    -951.90828145 Ry
     estimated scf accuracy    <       2.26589621 Ry

     total magnetization       =     0.00 Bohr mag/cell
     absolute magnetization    =     1.08 Bohr mag/cell

     iteration # 10     ecut=    70.00 Ry     beta= 0.70
     Davidson diagonalization with overlap
     ethr =  1.05E-03,  avg # of iterations =  2.0

     negative rho (up, down):  1.173E-02 2.374E-01

     total cpu time spent up to now is     1147.4 secs

     total energy              =    -951.84364435 Ry
     Harris-Foulkes estimate   =    -951.90568942 Ry
     estimated scf accuracy    <       0.43173443 Ry

     total magnetization       =     0.00 Bohr mag/cell
     absolute magnetization    =     0.85 Bohr mag/cell

     iteration # 11     ecut=    70.00 Ry     beta= 0.70
     Davidson diagonalization with overlap
     ethr =  2.00E-04,  avg # of iterations =  5.0

     negative rho (up, down):  1.181E-02 1.413E-01

     total cpu time spent up to now is     1246.6 secs

     total energy              =    -951.86686886 Ry
     Harris-Foulkes estimate   =    -951.89182538 Ry
     estimated scf accuracy    <       0.39429013 Ry

     total magnetization       =     0.00 Bohr mag/cell
     absolute magnetization    =     0.83 Bohr mag/cell

     iteration # 12     ecut=    70.00 Ry     beta= 0.70
     Davidson diagonalization with overlap
     ethr =  1.83E-04,  avg # of iterations =  2.0

     negative rho (up, down):  3.096E-03 1.789E-01

     total cpu time spent up to now is     1340.6 secs

     total energy              =    -951.88040647 Ry
     Harris-Foulkes estimate   =    -951.88381521 Ry
     estimated scf accuracy    <       0.03307808 Ry

     total magnetization       =     0.00 Bohr mag/cell
     absolute magnetization    =     0.37 Bohr mag/cell

     iteration # 13     ecut=    70.00 Ry     beta= 0.70
     Davidson diagonalization with overlap
     ethr =  1.53E-05,  avg # of iterations =  9.0

     negative rho (up, down):  1.520E-03 5.966E-02

     total cpu time spent up to now is     1451.3 secs

     total energy              =    -951.88235426 Ry
     Harris-Foulkes estimate   =    -951.88644187 Ry
     estimated scf accuracy    <       0.02736917 Ry

     total magnetization       =     0.00 Bohr mag/cell
     absolute magnetization    =     0.26 Bohr mag/cell

     iteration # 14     ecut=    70.00 Ry     beta= 0.70
     Davidson diagonalization with overlap
     ethr =  1.27E-05,  avg # of iterations =  3.0

     negative rho (up, down):  2.471E-03 1.904E-01

     total cpu time spent up to now is     1550.3 secs

     total energy              =    -951.88936939 Ry
     Harris-Foulkes estimate   =    -951.88780791 Ry
     estimated scf accuracy    <       0.08374515 Ry

     total magnetization       =    -0.00 Bohr mag/cell
     absolute magnetization    =     0.45 Bohr mag/cell

     iteration # 15     ecut=    70.00 Ry     beta= 0.70
     Davidson diagonalization with overlap
     ethr =  1.27E-05,  avg # of iterations =  2.5

     negative rho (up, down):  1.721E-03 2.954E-01

     total cpu time spent up to now is     1649.3 secs

     total energy              =    -951.88284741 Ry
     Harris-Foulkes estimate   =    -951.89211749 Ry
     estimated scf accuracy    <       0.35312370 Ry

     total magnetization       =    -0.00 Bohr mag/cell
     absolute magnetization    =     0.93 Bohr mag/cell

     iteration # 16     ecut=    70.00 Ry     beta= 0.70
     Davidson diagonalization with overlap
     ethr =  1.27E-05,  avg # of iterations =  3.0

     negative rho (up, down):  1.207E-03 2.652E-01

     total cpu time spent up to now is     1748.8 secs

     total energy              =    -951.88247402 Ry
     Harris-Foulkes estimate   =    -951.88469818 Ry
     estimated scf accuracy    <       0.07178856 Ry

     total magnetization       =     0.05 Bohr mag/cell
     absolute magnetization    =     0.46 Bohr mag/cell

     iteration # 17     ecut=    70.00 Ry     beta= 0.70
     Davidson diagonalization with overlap
     ethr =  1.27E-05,  avg # of iterations =  2.5

     negative rho (up, down):  1.322E-03 2.141E-01

     total cpu time spent up to now is     1849.2 secs

     total energy              =    -951.88510683 Ry
     Harris-Foulkes estimate   =    -951.88496347 Ry
     estimated scf accuracy    <       0.05081016 Ry

     total magnetization       =    -0.00 Bohr mag/cell
     absolute magnetization    =     0.40 Bohr mag/cell

     iteration # 18     ecut=    70.00 Ry     beta= 0.70
     Davidson diagonalization with overlap
     ethr =  1.27E-05,  avg # of iterations =  2.5

     negative rho (up, down):  2.269E-03 1.514E-01

     total cpu time spent up to now is     1944.0 secs

     total energy              =    -951.88488243 Ry
     Harris-Foulkes estimate   =    -951.88560471 Ry
     estimated scf accuracy    <       0.02089556 Ry

     total magnetization       =     0.00 Bohr mag/cell
     absolute magnetization    =     0.23 Bohr mag/cell

     iteration # 19     ecut=    70.00 Ry     beta= 0.70
     Davidson diagonalization with overlap
     ethr =  9.67E-06,  avg # of iterations =  2.5

     negative rho (up, down):  1.376E-03 7.937E-02

     total cpu time spent up to now is     2039.6 secs

     total energy              =    -951.88597315 Ry
     Harris-Foulkes estimate   =    -951.88541019 Ry
     estimated scf accuracy    <       0.00080462 Ry

     total magnetization       =     0.00 Bohr mag/cell
     absolute magnetization    =     0.09 Bohr mag/cell

     iteration # 20     ecut=    70.00 Ry     beta= 0.70
     Davidson diagonalization with overlap
     ethr =  3.73E-07,  avg # of iterations =  3.0

     negative rho (up, down):  1.157E-03 3.247E-02

     total cpu time spent up to now is     2138.8 secs

     total energy              =    -951.88617282 Ry
     Harris-Foulkes estimate   =    -951.88604190 Ry
     estimated scf accuracy    <       0.00007164 Ry

     total magnetization       =     0.00 Bohr mag/cell
     absolute magnetization    =     0.04 Bohr mag/cell

     iteration # 21     ecut=    70.00 Ry     beta= 0.70
     Davidson diagonalization with overlap
     ethr =  3.32E-08,  avg # of iterations =  3.0

     negative rho (up, down):  1.142E-03 9.629E-03

     total cpu time spent up to now is     2253.1 secs

     total energy              =    -951.88620764 Ry
     Harris-Foulkes estimate   =    -951.88621028 Ry
     estimated scf accuracy    <       0.00012889 Ry

     total magnetization       =     0.00 Bohr mag/cell
     absolute magnetization    =     0.04 Bohr mag/cell

     iteration # 22     ecut=    70.00 Ry     beta= 0.70
     Davidson diagonalization with overlap
     ethr =  3.32E-08,  avg # of iterations =  3.0

     negative rho (up, down):  1.142E-03 4.400E-03

     total cpu time spent up to now is     2357.5 secs

     total energy              =    -951.88622189 Ry
     Harris-Foulkes estimate   =    -951.88622701 Ry
     estimated scf accuracy    <       0.00003526 Ry

     total magnetization       =    -0.00 Bohr mag/cell
     absolute magnetization    =     0.03 Bohr mag/cell

     iteration # 23     ecut=    70.00 Ry     beta= 0.70
     Davidson diagonalization with overlap
     ethr =  1.63E-08,  avg # of iterations =  3.0

     negative rho (up, down):  1.142E-03 2.939E-03

     total cpu time spent up to now is     2457.7 secs

     total energy              =    -951.88622538 Ry
     Harris-Foulkes estimate   =    -951.88622745 Ry
     estimated scf accuracy    <       0.00001724 Ry

     total magnetization       =     0.00 Bohr mag/cell
     absolute magnetization    =     0.02 Bohr mag/cell

     iteration # 24     ecut=    70.00 Ry     beta= 0.70
     Davidson diagonalization with overlap
     ethr =  7.98E-09,  avg # of iterations =  2.5

     negative rho (up, down):  1.142E-03 4.414E-03

     total cpu time spent up to now is     2553.7 secs

     total energy              =    -951.88622681 Ry
     Harris-Foulkes estimate   =    -951.88622788 Ry
     estimated scf accuracy    <       0.00002960 Ry

     total magnetization       =     0.00 Bohr mag/cell
     absolute magnetization    =     0.02 Bohr mag/cell

     iteration # 25     ecut=    70.00 Ry     beta= 0.70
     Davidson diagonalization with overlap
     ethr =  7.98E-09,  avg # of iterations =  2.0

     negative rho (up, down):  1.141E-03 1.014E-02

     total cpu time spent up to now is     2648.9 secs

     total energy              =    -951.88622802 Ry
     Harris-Foulkes estimate   =    -951.88622800 Ry
     estimated scf accuracy    <       0.00003656 Ry

     total magnetization       =     0.00 Bohr mag/cell
     absolute magnetization    =     0.02 Bohr mag/cell

     iteration # 26     ecut=    70.00 Ry     beta= 0.70
     Davidson diagonalization with overlap
     ethr =  7.98E-09,  avg # of iterations =  2.0

     negative rho (up, down):  1.141E-03 1.824E-02

     total cpu time spent up to now is     2742.4 secs

     total energy              =    -951.88622317 Ry
     Harris-Foulkes estimate   =    -951.88622826 Ry
     estimated scf accuracy    <       0.00008759 Ry

     total magnetization       =    -0.00 Bohr mag/cell
     absolute magnetization    =     0.03 Bohr mag/cell

     iteration # 27     ecut=    70.00 Ry     beta= 0.70
     Davidson diagonalization with overlap
     ethr =  7.98E-09,  avg # of iterations =  2.0

     negative rho (up, down):  1.141E-03 9.347E-03

     total cpu time spent up to now is     2840.0 secs

     total energy              =    -951.88622743 Ry
     Harris-Foulkes estimate   =    -951.88622491 Ry
     estimated scf accuracy    <       0.00002166 Ry

     total magnetization       =     0.00 Bohr mag/cell
     absolute magnetization    =     0.02 Bohr mag/cell

     iteration # 28     ecut=    70.00 Ry     beta= 0.70
     Davidson diagonalization with overlap
     ethr =  7.98E-09,  avg # of iterations =  1.0

     negative rho (up, down):  1.141E-03 7.148E-03

     total cpu time spent up to now is     2933.6 secs

     total energy              =    -951.88622765 Ry
     Harris-Foulkes estimate   =    -951.88622754 Ry
     estimated scf accuracy    <       0.00001302 Ry

     total magnetization       =     0.00 Bohr mag/cell
     absolute magnetization    =     0.02 Bohr mag/cell

     iteration # 29     ecut=    70.00 Ry     beta= 0.70
     Davidson diagonalization with overlap
     ethr =  6.03E-09,  avg # of iterations =  1.5

     negative rho (up, down):  1.143E-03 1.319E-02

     total cpu time spent up to now is     3029.3 secs

     total energy              =    -951.88622714 Ry
     Harris-Foulkes estimate   =    -951.88622850 Ry
     estimated scf accuracy    <       0.00008133 Ry

     total magnetization       =     0.00 Bohr mag/cell
     absolute magnetization    =     0.03 Bohr mag/cell

     iteration # 30     ecut=    70.00 Ry     beta= 0.70
     Davidson diagonalization with overlap
     ethr =  6.03E-09,  avg # of iterations =  1.5

     negative rho (up, down):  1.149E-03 2.043E-02

     total cpu time spent up to now is     3123.9 secs

     total energy              =    -951.88622288 Ry
     Harris-Foulkes estimate   =    -951.88622753 Ry
     estimated scf accuracy    <       0.00017761 Ry

     total magnetization       =    -0.00 Bohr mag/cell
     absolute magnetization    =     0.03 Bohr mag/cell

     iteration # 31     ecut=    70.00 Ry     beta= 0.70
     Davidson diagonalization with overlap
     ethr =  6.03E-09,  avg # of iterations =  1.0

     negative rho (up, down):  1.152E-03 2.413E-02

     total cpu time spent up to now is     3216.9 secs

     total energy              =    -951.88621378 Ry
     Harris-Foulkes estimate   =    -951.88622310 Ry
     estimated scf accuracy    <       0.00020651 Ry

     total magnetization       =    -0.00 Bohr mag/cell
     absolute magnetization    =     0.03 Bohr mag/cell

     iteration # 32     ecut=    70.00 Ry     beta= 0.70
     Davidson diagonalization with overlap
     ethr =  6.03E-09,  avg # of iterations =  2.5

     negative rho (up, down):  1.144E-03 1.060E-02

     total cpu time spent up to now is     3315.7 secs

     total energy              =    -951.88622585 Ry
     Harris-Foulkes estimate   =    -951.88621645 Ry
     estimated scf accuracy    <       0.00001001 Ry

     total magnetization       =    -0.00 Bohr mag/cell
     absolute magnetization    =     0.01 Bohr mag/cell

     iteration # 33     ecut=    70.00 Ry     beta= 0.70
     Davidson diagonalization with overlap
     ethr =  4.63E-09,  avg # of iterations =  2.0

     negative rho (up, down):  1.141E-03 3.429E-05

     Magnetic moment per site:
     atom:    1    charge:    0.2111    magn:    0.0000    constr:    0.0000
     atom:    2    charge:    0.2124    magn:   -0.0000    constr:    0.0000
     atom:    3    charge:    1.7155    magn:    0.0001    constr:    0.0000
     atom:    4    charge:    1.7152    magn:   -0.0001    constr:    0.0000
     atom:    5    charge:    1.7168    magn:    0.0000    constr:    0.0000
     atom:    6    charge:    1.7146    magn:   -0.0000    constr:    0.0000
     atom:    7    charge:    1.7168    magn:    0.0000    constr:    0.0000
     atom:    8    charge:    1.7152    magn:   -0.0001    constr:    0.0000
     atom:    9    charge:    1.7155    magn:    0.0001    constr:    0.0000
     atom:   10    charge:    1.7176    magn:   -0.0001    constr:    0.0000
     atom:   11    charge:    1.7155    magn:    0.0001    constr:    0.0000
     atom:   12    charge:    1.7176    magn:   -0.0001    constr:    0.0000
     atom:   13    charge:    1.7155    magn:    0.0001    constr:    0.0000
     atom:   14    charge:    1.7175    magn:   -0.0001    constr:    0.0000
     atom:   15    charge:    1.7117    magn:    0.0001    constr:    0.0000
     atom:   16    charge:    1.7113    magn:   -0.0000    constr:    0.0000
     atom:   17    charge:    1.7205    magn:    0.0001    constr:    0.0000
     atom:   18    charge:    1.7113    magn:   -0.0001    constr:    0.0000
     atom:   19    charge:    1.7117    magn:    0.0001    constr:    0.0000
     atom:   20    charge:    1.7175    magn:   -0.0001    constr:    0.0000
     atom:   21    charge:    1.7155    magn:    0.0001    constr:    0.0000
     atom:   22    charge:    1.7176    magn:   -0.0001    constr:    0.0000
     atom:   23    charge:    1.7155    magn:    0.0001    constr:    0.0000
     atom:   24    charge:    1.7152    magn:   -0.0001    constr:    0.0000
     atom:   25    charge:    1.7117    magn:    0.0000    constr:    0.0000
     atom:   26    charge:    1.7113    magn:   -0.0000    constr:    0.0000
     atom:   27    charge:    1.8186    magn:    0.0000    constr:    0.0000
     atom:   28    charge:   13.4056    magn:    0.0001    constr:    0.0000
     atom:   29    charge:    1.8186    magn:    0.0000    constr:    0.0000
     atom:   30    charge:    1.7113    magn:   -0.0001    constr:    0.0000
     atom:   31    charge:    1.7117    magn:    0.0001    constr:    0.0000
     atom:   32    charge:    1.7152    magn:   -0.0001    constr:    0.0000
     atom:   33    charge:    1.7168    magn:    0.0000    constr:    0.0000
     atom:   34    charge:    1.7154    magn:   -0.0000    constr:    0.0000
     atom:   35    charge:    1.7168    magn:    0.0000    constr:    0.0000
     atom:   36    charge:    1.7146    magn:   -0.0000    constr:    0.0000
     atom:   37    charge:    1.7205    magn:    0.0000    constr:    0.0000
     atom:   38    charge:    1.7113    magn:   -0.0000    constr:    0.0000
     atom:   39    charge:    1.8186    magn:    0.0000    constr:    0.0000
     atom:   40    charge:    1.7113    magn:   -0.0000    constr:    0.0000
     atom:   41    charge:    1.7205    magn:    0.0001    constr:    0.0000
     atom:   42    charge:    1.7146    magn:   -0.0000    constr:    0.0000
     atom:   43    charge:    1.7168    magn:    0.0000    constr:    0.0000
     atom:   44    charge:    1.7154    magn:   -0.0000    constr:    0.0000
     atom:   45    charge:    1.7212    magn:    0.0000    constr:    0.0000
     atom:   46    charge:    1.7154    magn:   -0.0000    constr:    0.0000
     atom:   47    charge:    1.7168    magn:    0.0000    constr:    0.0000
     atom:   48    charge:    1.7152    magn:   -0.0001    constr:    0.0000
     atom:   49    charge:    1.7117    magn:    0.0000    constr:    0.0000
     atom:   50    charge:    1.7175    magn:   -0.0001    constr:    0.0000
     atom:   51    charge:    1.7117    magn:    0.0001    constr:    0.0000
     atom:   52    charge:    1.7152    magn:   -0.0001    constr:    0.0000

     total cpu time spent up to now is     3408.6 secs

     End of self-consistent calculation

 ------ SPIN UP ------------


          k = 0.0000 0.0000 0.0000 ( 87777 PWs)   bands (ev):

  -107.9267 -69.0942 -69.0942 -67.0139 -19.8292 -19.0096 -19.0095 -18.8909
   -18.8909 -18.8058 -18.7396 -17.1657 -17.1657 -17.1307 -17.0820 -17.0819
   -16.7561 -16.3148 -16.3147 -16.1683 -16.1683 -16.1548 -15.6736 -14.3135
   -14.3135 -14.1526 -14.0187 -14.0186 -13.5176 -13.1310 -13.1310 -13.0793
   -12.9036 -12.9036 -12.5035 -12.0788 -12.0787 -11.7149 -11.5709 -11.5709
   -10.9382 -10.4358 -10.4357  -9.5798  -9.3681  -9.3681  -9.2287  -9.2139
    -9.2139  -9.1992  -8.9555  -8.9555  -8.5959  -8.5959  -8.4604  -7.9580
    -7.9043  -7.8564  -7.8564  -7.6673  -7.5442  -7.5442  -7.4509  -7.4509
    -6.9128  -6.8487  -6.8236  -6.8236  -6.7493  -6.6218  -6.6217  -6.5577
    -6.5526  -6.5525  -6.5222  -6.4535  -6.4294  -6.4294  -6.3062  -6.2920
    -6.2920  -5.5493  -5.5493  -5.0330  -4.9520  -4.8451  -4.8450  -4.7596
    -4.7184  -4.7183  -4.4201  -4.4013  -4.4013  -3.8382  -3.8382  -3.7665
    -3.7614  -3.7614  -3.6883  -3.4231  -3.4231  -3.3377  -1.8937  -1.8082
    -1.8082  -1.5933  -1.5933  -1.1574   0.0975   0.0978   0.9022   0.9606
     0.9606   1.2087   1.2087   1.5442   2.5061   2.8003   2.8003   2.8511
     3.0341   3.0341   3.4320   3.6154   3.6163   3.7453   3.7463   3.7698
     3.9070   4.2849

     occupation numbers 
     1.0000   1.0000   1.0000   1.0000   1.0000   1.0000   1.0000   1.0000
     1.0000   1.0000   1.0000   1.0000   1.0000   1.0000   1.0000   1.0000
     1.0000   1.0000   1.0000   1.0000   1.0000   1.0000   1.0000   1.0000
     1.0000   1.0000   1.0000   1.0000   1.0000   1.0000   1.0000   1.0000
     1.0000   1.0000   1.0000   1.0000   1.0000   1.0000   1.0000   1.0000
     1.0000   1.0000   1.0000   1.0000   1.0000   1.0000   1.0000   1.0000
     1.0000   1.0000   1.0000   1.0000   1.0000   1.0000   1.0000   1.0000
     1.0000   1.0000   1.0000   1.0000   1.0000   1.0000   1.0000   1.0000
     1.0000   1.0000   1.0000   1.0000   1.0000   1.0000   1.0000   1.0000
     1.0000   1.0000   1.0000   1.0000   1.0000   1.0000   1.0000   1.0000
     1.0000   1.0000   1.0000   1.0000   1.0000   1.0000   1.0000   1.0000
     1.0000   1.0000   1.0000   1.0000   1.0000   1.0000   1.0000   1.0000
     1.0000   1.0000   1.0000   1.0000   1.0000   1.0000   1.0000   1.0000
     1.0000   1.0000   1.0000   1.0000   0.0000   0.0000   0.0000   0.0000
     0.0000   0.0000   0.0000   0.0000   0.0000   0.0000   0.0000   0.0000
     0.0000   0.0000   0.0000   0.0000   0.0000   0.0000   0.0000   0.0000
     0.0000   0.0000

 ------ SPIN DOWN ----------


          k = 0.0000 0.0000 0.0000 ( 87777 PWs)   bands (ev):

  -107.9266 -69.0942 -69.0941 -67.0138 -19.8292 -19.0096 -19.0095 -18.8909
   -18.8909 -18.8058 -18.7396 -17.1657 -17.1657 -17.1307 -17.0820 -17.0819
   -16.7561 -16.3147 -16.3147 -16.1683 -16.1683 -16.1548 -15.6735 -14.3135
   -14.3135 -14.1526 -14.0186 -14.0186 -13.5175 -13.1310 -13.1310 -13.0793
   -12.9036 -12.9036 -12.5036 -12.0788 -12.0788 -11.7148 -11.5709 -11.5709
   -10.9382 -10.4358 -10.4357  -9.5797  -9.3681  -9.3681  -9.2288  -9.2139
    -9.2139  -9.1992  -8.9555  -8.9555  -8.5959  -8.5959  -8.4603  -7.9580
    -7.9043  -7.8564  -7.8563  -7.6673  -7.5442  -7.5442  -7.4509  -7.4509
    -6.9128  -6.8487  -6.8236  -6.8236  -6.7493  -6.6218  -6.6217  -6.5577
    -6.5526  -6.5525  -6.5223  -6.4535  -6.4294  -6.4294  -6.3062  -6.2920
    -6.2920  -5.5493  -5.5493  -5.0330  -4.9520  -4.8451  -4.8450  -4.7596
    -4.7184  -4.7183  -4.4201  -4.4014  -4.4013  -3.8383  -3.8382  -3.7665
    -3.7614  -3.7614  -3.6883  -3.4232  -3.4232  -3.3376  -1.8938  -1.8081
    -1.8081  -1.5935  -1.5935  -1.1572   0.0976   0.0977   0.9022   0.9607
     0.9607   1.2087   1.2087   1.5441   2.5063   2.8003   2.8003   2.8511
     3.0341   3.0341   3.4321   3.6155   3.6165   3.7453   3.7463   3.7703
     3.9077   4.2851

     occupation numbers 
     1.0000   1.0000   1.0000   1.0000   1.0000   1.0000   1.0000   1.0000
     1.0000   1.0000   1.0000   1.0000   1.0000   1.0000   1.0000   1.0000
     1.0000   1.0000   1.0000   1.0000   1.0000   1.0000   1.0000   1.0000
     1.0000   1.0000   1.0000   1.0000   1.0000   1.0000   1.0000   1.0000
     1.0000   1.0000   1.0000   1.0000   1.0000   1.0000   1.0000   1.0000
     1.0000   1.0000   1.0000   1.0000   1.0000   1.0000   1.0000   1.0000
     1.0000   1.0000   1.0000   1.0000   1.0000   1.0000   1.0000   1.0000
     1.0000   1.0000   1.0000   1.0000   1.0000   1.0000   1.0000   1.0000
     1.0000   1.0000   1.0000   1.0000   1.0000   1.0000   1.0000   1.0000
     1.0000   1.0000   1.0000   1.0000   1.0000   1.0000   1.0000   1.0000
     1.0000   1.0000   1.0000   1.0000   1.0000   1.0000   1.0000   1.0000
     1.0000   1.0000   1.0000   1.0000   1.0000   1.0000   1.0000   1.0000
     1.0000   1.0000   1.0000   1.0000   1.0000   1.0000   1.0000   1.0000
     1.0000   1.0000   1.0000   1.0000   0.0000   0.0000   0.0000   0.0000
     0.0000   0.0000   0.0000   0.0000   0.0000   0.0000   0.0000   0.0000
     0.0000   0.0000   0.0000   0.0000   0.0000   0.0000   0.0000   0.0000
     0.0000   0.0000

     the Fermi energy is    -0.9502 ev

!    total energy              =    -951.88622864 Ry
     Harris-Foulkes estimate   =    -951.88622630 Ry
     estimated scf accuracy    <       0.00000045 Ry

     The total energy is the sum of the following terms:

     one-electron contribution =   -2982.40101165 Ry
     hartree contribution      =    1533.82852935 Ry
     xc contribution           =    -265.73360951 Ry
     ewald contribution        =     762.41986317 Ry
     smearing contrib. (-TS)   =       0.00000000 Ry

     total magnetization       =    -0.00 Bohr mag/cell
     absolute magnetization    =     0.01 Bohr mag/cell

     convergence has been achieved in  33 iterations

     Writing output data file distance-2.6.save/

     init_run     :     75.48s CPU     76.76s WALL (       1 calls)
     electrons    :   3274.87s CPU   3330.83s WALL (       1 calls)

     Called by init_run:
     wfcinit      :     41.59s CPU     41.83s WALL (       1 calls)
     wfcinit:atom :      0.05s CPU      0.09s WALL (       2 calls)
     wfcinit:wfcr :     41.18s CPU     41.33s WALL (       2 calls)
     potinit      :     13.79s CPU     14.24s WALL (       1 calls)
     hinit0       :     11.44s CPU     11.47s WALL (       1 calls)

     Called by electrons:
     c_bands      :   2075.00s CPU   2085.24s WALL (      33 calls)
     sum_band     :    699.22s CPU    717.66s WALL (      33 calls)
     v_of_rho     :    243.87s CPU    254.72s WALL (      34 calls)
     v_h          :      2.66s CPU      2.72s WALL (      34 calls)
     v_xc         :    241.21s CPU    252.00s WALL (      34 calls)
     newd         :    248.38s CPU    265.30s WALL (      34 calls)
     mix_rho      :     15.06s CPU     15.28s WALL (      33 calls)

     Called by c_bands:
     init_us_2    :      6.06s CPU      6.09s WALL (     134 calls)
     cegterg      :   2059.91s CPU   2070.11s WALL (      66 calls)

     Called by sum_band:
     sum_band:bec :      0.05s CPU      0.05s WALL (      66 calls)
     addusdens    :    432.03s CPU    448.85s WALL (      33 calls)

     Called by *egterg:
     h_psi        :   1077.70s CPU   1084.48s WALL (     250 calls)
     s_psi        :    367.39s CPU    367.50s WALL (     250 calls)
     g_psi        :      1.16s CPU      1.16s WALL (     182 calls)
     cdiaghg      :     16.14s CPU     16.15s WALL (     248 calls)
     cegterg:over :    254.43s CPU    254.53s WALL (     182 calls)
     cegterg:upda :    151.90s CPU    152.84s WALL (     182 calls)
     cegterg:last :    113.39s CPU    113.41s WALL (      66 calls)

     Called by h_psi:
     h_psi:pot    :   1076.57s CPU   1081.92s WALL (     250 calls)
     h_psi:calbec :    366.60s CPU    366.70s WALL (     250 calls)
     vloc_psi     :    342.59s CPU    347.78s WALL (     250 calls)
     add_vuspsi   :    367.37s CPU    367.44s WALL (     250 calls)

     General routines
     calbec       :    528.04s CPU    528.18s WALL (     316 calls)
     fft          :    139.39s CPU    143.75s WALL (    2544 calls)
     ffts         :      2.31s CPU      2.40s WALL (     134 calls)
     fftw         :    361.53s CPU    367.24s WALL (   47688 calls)
     interpolate  :      5.81s CPU      5.95s WALL (      68 calls)

     Parallel routines
     fft_scatt_xy :     90.36s CPU     91.38s WALL (   50366 calls)
     fft_scatt_yz :    164.38s CPU    172.04s WALL (   50366 calls)

     PWSCF        :  55m51.70s CPU  56m49.28s WALL


   This run was terminated on:   7:48:11  20Dec2022            

=------------------------------------------------------------------------------=
   JOB DONE.
=------------------------------------------------------------------------------=
