
     Program PWSCF v.6.4.1 starts on 20Dec2022 at  8:39:50 

     This program is part of the open-source Quantum ESPRESSO suite
     for quantum simulation of materials; please cite
         "P. Giannozzi et al., J. Phys.:Condens. Matter 21 395502 (2009);
         "P. Giannozzi et al., J. Phys.:Condens. Matter 29 465901 (2017);
          URL http://www.quantum-espresso.org", 
     in publications or presentations arising from this work. More details at
     http://www.quantum-espresso.org/quote

     Parallel version (MPI), running on     6 processors

     MPI processes distributed on     1 nodes
     R & G space division:  proc/nbgrp/npool/nimage =       6
     Reading input from distance-2.2.in

     Current dimensions of program PWSCF are:
     Max number of different atomic species (ntypx) = 10
     Max number of k-points (npk) =  40000
     Max angular momentum in pseudopotentials (lmaxx) =  3

     IMPORTANT: XC functional enforced from input :
     Exchange-correlation      = RVV10 ( 1  4 13  4 3 0)
     Any further DFT definition will be discarded
     Please, verify this is what you really want

               file H.pbe-rrkjus.UPF: wavefunction(s)  1S renormalized

     Subspace diagonalization in iterative solution of the eigenvalue problem:
     a serial algorithm will be used


     Parallelization info
     --------------------
     sticks:   dense  smooth     PW     G-vecs:    dense   smooth      PW
     Min        3051    1746    432               270999   117096   14629
     Max        3053    1747    437               271001   117099   14630
     Sum       18313   10477   2611              1626001   702581   87777



     bravais-lattice index     =            4
     lattice parameter (alat)  =      23.2937  a.u.
     unit-cell volume          =    8879.8548 (a.u.)^3
     number of atoms/cell      =           52
     number of atomic types    =            3
     number of electrons       =       216.00
     number of Kohn-Sham states=          130
     kinetic-energy cutoff     =      70.0000  Ry
     charge density cutoff     =     490.0000  Ry
     convergence threshold     =      1.0E-06
     mixing beta               =       0.7000
     number of iterations used =            8  plain     mixing
     Exchange-correlation      = RVV10 ( 1  4 13  4 3 0)

     celldm(1)=  23.293684  celldm(2)=   0.000000  celldm(3)=   0.811261
     celldm(4)=   0.000000  celldm(5)=   0.000000  celldm(6)=   0.000000

     crystal axes: (cart. coord. in units of alat)
               a(1) = (   1.000000   0.000000   0.000000 )  
               a(2) = (  -0.500000   0.866025   0.000000 )  
               a(3) = (   0.000000   0.000000   0.811261 )  

     reciprocal axes: (cart. coord. in units 2 pi/alat)
               b(1) = (  1.000000  0.577350 -0.000000 )  
               b(2) = (  0.000000  1.154701  0.000000 )  
               b(3) = (  0.000000 -0.000000  1.232649 )  


     PseudoPot. # 1 for H  read from file:
     /home/cristian/Escritorio/Proyecto_Grafeno/pseudopotenciales/H.pbe-rrkjus.UPF
     MD5 check sum: 7cc9d459525c9a0585f487a71c3c9563
     Pseudo is Ultrasoft, Zval =  1.0
     Generated by new atomic code, or converted to UPF format
     Using radial grid of 1061 points,  2 beta functions with: 
                l(1) =   0
                l(2) =   0
     Q(r) pseudized with 0 coefficients 


     PseudoPot. # 2 for C  read from file:
     /home/cristian/Escritorio/Proyecto_Grafeno/pseudopotenciales/C.pbe-n-rrkjus_psl.1.0.0.UPF
     MD5 check sum: 1fdd950c42eb37d8afe3dd2f8d12311e
     Pseudo is Ultrasoft + core correction, Zval =  4.0
     Generated using "atomic" code by A. Dal Corso v.6.3MaX
     Using radial grid of 1073 points,  4 beta functions with: 
                l(1) =   0
                l(2) =   0
                l(3) =   1
                l(4) =   1
     Q(r) pseudized with 0 coefficients 


     PseudoPot. # 3 for Ni read from file:
     /home/cristian/Escritorio/Proyecto_Grafeno/pseudopotenciales/Ni.pbe-spn-rrkjus_psl.1.0.0.UPF
     MD5 check sum: 8b3fc9aac6dafe35f580d41bb18c3945
     Pseudo is Ultrasoft + core correction, Zval = 18.0
     Generated using "atomic" code by A. Dal Corso v.6.3
     Using radial grid of 1195 points,  6 beta functions with: 
                l(1) =   0
                l(2) =   0
                l(3) =   1
                l(4) =   1
                l(5) =   2
                l(6) =   2
     Q(r) pseudized with 0 coefficients 


     vdW kernel table read from file rVV10_kernel_table
     MD5 check sum: b8e2538accc0c0b3206b45ba4daaba6c

     atomic species   valence    mass     pseudopotential
        H              1.00     1.00794     H ( 1.00)
        C              4.00    12.01070     C ( 1.00)
        Ni            18.00    58.69340     Ni( 1.00)

     Starting magnetic structure 
     atomic species   magnetization
        H            0.500
        C            0.300
        Ni           0.800

      2 Sym. Ops. (no inversion) found


                                    s                        frac. trans.

      isym =  1     identity                                     

 cryst.   s( 1) = (     1          0          0      )
                  (     0          1          0      )
                  (     0          0          1      )

 cart.    s( 1) = (  1.0000000  0.0000000  0.0000000 )
                  (  0.0000000  1.0000000  0.0000000 )
                  (  0.0000000  0.0000000  1.0000000 )


      isym =  2     inv. 180 deg rotation - cryst. axis [1,1,0]  

 cryst.   s( 2) = (     0         -1          0      )
                  (    -1          0          0      )
                  (     0          0          1      )

 cart.    s( 2) = (  0.5000000 -0.8660254  0.0000000 )
                  ( -0.8660254 -0.5000000  0.0000000 )
                  (  0.0000000  0.0000000  1.0000000 )


     point group C_s (m)    
     there are  2 classes
     the character table:

       E     s    
A'     1.00  1.00
A''    1.00 -1.00

     the symmetry operations in each class and the name of the first element:

     E        1
          identity                                               
     s        2
          inv. 180 deg rotation - cryst. axis [1,1,0]            

   Cartesian axes

     site n.     atom                  positions (alat units)
         1           H   tau(   1) = (   0.2000000   0.4618802   0.1784775  )
         2           H   tau(   2) = (   0.2000000   0.4618802   0.2394901  )
         3           C   tau(   3) = (   0.0000000   0.0000000   0.0000000  )
         4           C   tau(   4) = (   0.0000000   0.1154701   0.0000000  )
         5           C   tau(   5) = (  -0.1000000   0.1732051   0.0000000  )
         6           C   tau(   6) = (  -0.1000000   0.2886751   0.0000000  )
         7           C   tau(   7) = (  -0.2000000   0.3464102   0.0000000  )
         8           C   tau(   8) = (  -0.2000000   0.4618802   0.0000000  )
         9           C   tau(   9) = (  -0.3000000   0.5196152   0.0000000  )
        10           C   tau(  10) = (  -0.3000000   0.6350853   0.0000000  )
        11           C   tau(  11) = (  -0.4000000   0.6928203   0.0000000  )
        12           C   tau(  12) = (  -0.4000000   0.8082904   0.0000000  )
        13           C   tau(  13) = (   0.2000000   0.0000000   0.0000000  )
        14           C   tau(  14) = (   0.2000000   0.1154701   0.0000000  )
        15           C   tau(  15) = (   0.1000000   0.1732051   0.0000000  )
        16           C   tau(  16) = (   0.1000000   0.2886751   0.0000000  )
        17           C   tau(  17) = (   0.0000000   0.3464102   0.0000000  )
        18           C   tau(  18) = (   0.0000000   0.4618802   0.0000000  )
        19           C   tau(  19) = (  -0.1000000   0.5196152   0.0000000  )
        20           C   tau(  20) = (  -0.1000000   0.6350853   0.0000000  )
        21           C   tau(  21) = (  -0.2000000   0.6928203   0.0000000  )
        22           C   tau(  22) = (  -0.2000000   0.8082904   0.0000000  )
        23           C   tau(  23) = (   0.4000000   0.0000000   0.0000000  )
        24           C   tau(  24) = (   0.4000000   0.1154701   0.0000000  )
        25           C   tau(  25) = (   0.3000000   0.1732051   0.0000000  )
        26           C   tau(  26) = (   0.3000000   0.2886751   0.0000000  )
        27           C   tau(  27) = (   0.2000000   0.3464102   0.0000000  )
        28           Ni  tau(  28) = (   0.2000000   0.4618802   0.0000000  )
        29           C   tau(  29) = (   0.1000000   0.5196152   0.0000000  )
        30           C   tau(  30) = (   0.1000000   0.6350853   0.0000000  )
        31           C   tau(  31) = (   0.0000000   0.6928203   0.0000000  )
        32           C   tau(  32) = (   0.0000000   0.8082904   0.0000000  )
        33           C   tau(  33) = (   0.6000000   0.0000000   0.0000000  )
        34           C   tau(  34) = (   0.6000000   0.1154701   0.0000000  )
        35           C   tau(  35) = (   0.5000000   0.1732051   0.0000000  )
        36           C   tau(  36) = (   0.5000000   0.2886751   0.0000000  )
        37           C   tau(  37) = (   0.4000000   0.3464102   0.0000000  )
        38           C   tau(  38) = (   0.4000000   0.4618802   0.0000000  )
        39           C   tau(  39) = (   0.3000000   0.5196152   0.0000000  )
        40           C   tau(  40) = (   0.3000000   0.6350853   0.0000000  )
        41           C   tau(  41) = (   0.2000000   0.6928203   0.0000000  )
        42           C   tau(  42) = (   0.2000000   0.8082904   0.0000000  )
        43           C   tau(  43) = (   0.8000000   0.0000000   0.0000000  )
        44           C   tau(  44) = (   0.8000000   0.1154701   0.0000000  )
        45           C   tau(  45) = (   0.7000000   0.1732051   0.0000000  )
        46           C   tau(  46) = (   0.7000000   0.2886751   0.0000000  )
        47           C   tau(  47) = (   0.6000000   0.3464102   0.0000000  )
        48           C   tau(  48) = (   0.6000000   0.4618802   0.0000000  )
        49           C   tau(  49) = (   0.5000000   0.5196152   0.0000000  )
        50           C   tau(  50) = (   0.5000000   0.6350853   0.0000000  )
        51           C   tau(  51) = (   0.4000000   0.6928203   0.0000000  )
        52           C   tau(  52) = (   0.4000000   0.8082904   0.0000000  )

   Crystallographic axes

     site n.     atom                  positions (cryst. coord.)
         1           H   tau(   1) = (  0.4666667  0.5333333  0.2200000  )
         2           H   tau(   2) = (  0.4666667  0.5333333  0.2952072  )
         3           C   tau(   3) = (  0.0000000  0.0000000  0.0000000  )
         4           C   tau(   4) = (  0.0666667  0.1333333  0.0000000  )
         5           C   tau(   5) = (  0.0000000  0.2000000  0.0000000  )
         6           C   tau(   6) = (  0.0666667  0.3333333  0.0000000  )
         7           C   tau(   7) = (  0.0000000  0.4000000  0.0000000  )
         8           C   tau(   8) = (  0.0666667  0.5333333  0.0000000  )
         9           C   tau(   9) = (  0.0000000  0.6000000  0.0000000  )
        10           C   tau(  10) = (  0.0666667  0.7333333  0.0000000  )
        11           C   tau(  11) = (  0.0000000  0.8000000  0.0000000  )
        12           C   tau(  12) = (  0.0666667  0.9333333  0.0000000  )
        13           C   tau(  13) = (  0.2000000  0.0000000  0.0000000  )
        14           C   tau(  14) = (  0.2666667  0.1333333  0.0000000  )
        15           C   tau(  15) = (  0.2000000  0.2000000  0.0000000  )
        16           C   tau(  16) = (  0.2666667  0.3333333  0.0000000  )
        17           C   tau(  17) = (  0.2000000  0.4000000  0.0000000  )
        18           C   tau(  18) = (  0.2666667  0.5333333  0.0000000  )
        19           C   tau(  19) = (  0.2000000  0.6000000  0.0000000  )
        20           C   tau(  20) = (  0.2666667  0.7333333  0.0000000  )
        21           C   tau(  21) = (  0.2000000  0.8000000  0.0000000  )
        22           C   tau(  22) = (  0.2666667  0.9333333  0.0000000  )
        23           C   tau(  23) = (  0.4000000  0.0000000  0.0000000  )
        24           C   tau(  24) = (  0.4666667  0.1333333  0.0000000  )
        25           C   tau(  25) = (  0.4000000  0.2000000  0.0000000  )
        26           C   tau(  26) = (  0.4666667  0.3333333  0.0000000  )
        27           C   tau(  27) = (  0.4000000  0.4000000  0.0000000  )
        28           Ni  tau(  28) = (  0.4666667  0.5333333  0.0000000  )
        29           C   tau(  29) = (  0.4000000  0.6000000  0.0000000  )
        30           C   tau(  30) = (  0.4666667  0.7333333  0.0000000  )
        31           C   tau(  31) = (  0.4000000  0.8000000  0.0000000  )
        32           C   tau(  32) = (  0.4666667  0.9333333  0.0000000  )
        33           C   tau(  33) = (  0.6000000  0.0000000  0.0000000  )
        34           C   tau(  34) = (  0.6666667  0.1333333  0.0000000  )
        35           C   tau(  35) = (  0.6000000  0.2000000  0.0000000  )
        36           C   tau(  36) = (  0.6666667  0.3333333  0.0000000  )
        37           C   tau(  37) = (  0.6000000  0.4000000  0.0000000  )
        38           C   tau(  38) = (  0.6666667  0.5333333  0.0000000  )
        39           C   tau(  39) = (  0.6000000  0.6000000  0.0000000  )
        40           C   tau(  40) = (  0.6666667  0.7333333  0.0000000  )
        41           C   tau(  41) = (  0.6000000  0.8000000  0.0000000  )
        42           C   tau(  42) = (  0.6666667  0.9333333  0.0000000  )
        43           C   tau(  43) = (  0.8000000  0.0000000  0.0000000  )
        44           C   tau(  44) = (  0.8666667  0.1333333  0.0000000  )
        45           C   tau(  45) = (  0.8000000  0.2000000  0.0000000  )
        46           C   tau(  46) = (  0.8666667  0.3333333  0.0000000  )
        47           C   tau(  47) = (  0.8000000  0.4000000  0.0000000  )
        48           C   tau(  48) = (  0.8666667  0.5333333  0.0000000  )
        49           C   tau(  49) = (  0.8000000  0.6000000  0.0000000  )
        50           C   tau(  50) = (  0.8666667  0.7333333  0.0000000  )
        51           C   tau(  51) = (  0.8000000  0.8000000  0.0000000  )
        52           C   tau(  52) = (  0.8666667  0.9333333  0.0000000  )

     number of k points=     1  Marzari-Vanderbilt smearing, width (Ry)=  0.0010
                       cart. coord. in units 2pi/alat
        k(    1) = (   0.0000000   0.0000000   0.0000000), wk =   1.0000000

                       cryst. coord.
        k(    1) = (   0.0000000   0.0000000   0.0000000), wk =   1.0000000

     Dense  grid:  1626001 G-vectors     FFT dimensions: ( 180, 180, 135)

     Smooth grid:   702581 G-vectors     FFT dimensions: ( 125, 125, 108)

     Dynamical RAM for                 wfc:      29.03 MB

     Dynamical RAM for     wfc (w. buffer):      87.10 MB

     Dynamical RAM for           str. fact:      12.41 MB

     Dynamical RAM for           local pot:       0.00 MB

     Dynamical RAM for          nlocal pot:      92.46 MB

     Dynamical RAM for                qrad:      19.73 MB

     Dynamical RAM for          rho,v,vnew:      58.92 MB

     Dynamical RAM for               rhoin:      19.64 MB

     Dynamical RAM for            rho*nmix:     132.32 MB

     Dynamical RAM for           G-vectors:      16.40 MB

     Dynamical RAM for          h,s,v(r/c):      12.38 MB

     Dynamical RAM for          <psi|beta>:       0.82 MB

     Dynamical RAM for                 psi:     116.14 MB

     Dynamical RAM for                hpsi:     116.14 MB

     Dynamical RAM for                spsi:     116.14 MB

     Dynamical RAM for      wfcinit/wfcrot:      93.90 MB

     Dynamical RAM for           addusdens:     975.89 MB

     Estimated static dynamical RAM per process >     489.64 MB

     Estimated max dynamical RAM per process >       1.43 GB

     Estimated total dynamical RAM >       8.59 GB
     Generating pointlists ...
     new r_m :   0.0252 (alat units)  0.5862 (a.u.) for type    1
     new r_m :   0.0476 (alat units)  1.1095 (a.u.) for type    2
     new r_m :   0.0476 (alat units)  1.1095 (a.u.) for type    3

     Check: negative core charge=   -0.000002

     Initial potential from superposition of free atoms

     starting charge  215.80530, renormalised to  216.00000

     negative rho (up, down):  1.550E-04 1.708E-02


---------------------------------------------------------------------------------
Carrying out rVV10 run using the following parameters:
Nqs =      20    Nr_points =    1024   r_max =   100.000
b_value =  6.30000    beta =  0.00901
     q_mesh =  0.00010000  0.00030000  0.00058939  0.00100810
               0.00161396  0.00249058  0.00375900  0.00559430
               0.00824984  0.01209221  0.01765183  0.02569619
               0.03733578  0.05417739  0.07854596  0.11380545
               0.16482331  0.23864234  0.34545298  0.50000000

Gradients computed in Reciprocal space

---------------------------------------------------------------------------------


     Starting wfcs are  208 randomized atomic wfcs

     total cpu time spent up to now is       74.7 secs

     Self-consistent Calculation

     iteration #  1     ecut=    70.00 Ry     beta= 0.70
     Davidson diagonalization with overlap
     ethr =  1.00E-02,  avg # of iterations =  4.5

     negative rho (up, down):  3.051E-04 1.493E-02

     total cpu time spent up to now is      209.7 secs

     total energy              =    -947.04802875 Ry
     Harris-Foulkes estimate   =    -949.64631583 Ry
     estimated scf accuracy    <      13.79279523 Ry

     total magnetization       =     6.00 Bohr mag/cell
     absolute magnetization    =     6.72 Bohr mag/cell

     iteration #  2     ecut=    70.00 Ry     beta= 0.70
     Davidson diagonalization with overlap
     ethr =  6.39E-03,  avg # of iterations =  3.5

     negative rho (up, down):  2.826E-02 3.490E-01

     total cpu time spent up to now is      327.5 secs

     total energy              =    -953.34792536 Ry
     Harris-Foulkes estimate   =    -956.39360611 Ry
     estimated scf accuracy    <      53.89406595 Ry

     total magnetization       =     4.00 Bohr mag/cell
     absolute magnetization    =    10.96 Bohr mag/cell

     iteration #  3     ecut=    70.00 Ry     beta= 0.70
     Davidson diagonalization with overlap
     ethr =  6.39E-03,  avg # of iterations =  3.5

     negative rho (up, down):  6.719E-03 5.478E-01

     total cpu time spent up to now is      431.2 secs

     total energy              =    -949.99318457 Ry
     Harris-Foulkes estimate   =    -965.14650820 Ry
     estimated scf accuracy    <     721.18288311 Ry

     total magnetization       =     0.00 Bohr mag/cell
     absolute magnetization    =    38.64 Bohr mag/cell

     iteration #  4     ecut=    70.00 Ry     beta= 0.70
     Davidson diagonalization with overlap
     ethr =  6.39E-03,  avg # of iterations =  4.5

     negative rho (up, down):  2.256E-03 5.176E-01

     total cpu time spent up to now is      541.4 secs

     total energy              =    -945.63966462 Ry
     Harris-Foulkes estimate   =    -954.35322110 Ry
     estimated scf accuracy    <     154.71394773 Ry

     total magnetization       =     1.13 Bohr mag/cell
     absolute magnetization    =    18.67 Bohr mag/cell

     iteration #  5     ecut=    70.00 Ry     beta= 0.70
     Davidson diagonalization with overlap
     ethr =  6.39E-03,  avg # of iterations =  4.0

     negative rho (up, down):  7.894E-02 2.827E-01

     total cpu time spent up to now is      666.6 secs

     total energy              =    -954.58820187 Ry
     Harris-Foulkes estimate   =    -952.88222585 Ry
     estimated scf accuracy    <      44.26886651 Ry

     total magnetization       =     4.00 Bohr mag/cell
     absolute magnetization    =    11.18 Bohr mag/cell

     iteration #  6     ecut=    70.00 Ry     beta= 0.70
     Davidson diagonalization with overlap
     ethr =  6.39E-03,  avg # of iterations =  3.0

     negative rho (up, down):  1.147E-01 4.760E-01

     total cpu time spent up to now is      769.8 secs

     total energy              =    -948.84008051 Ry
     Harris-Foulkes estimate   =    -959.67280922 Ry
     estimated scf accuracy    <     467.01470405 Ry

     total magnetization       =     2.00 Bohr mag/cell
     absolute magnetization    =    33.29 Bohr mag/cell

     iteration #  7     ecut=    70.00 Ry     beta= 0.70
     Davidson diagonalization with overlap
     ethr =  6.39E-03,  avg # of iterations =  2.0

     negative rho (up, down):  9.795E-02 4.879E-01

     total cpu time spent up to now is      880.1 secs

     total energy              =    -952.42567112 Ry
     Harris-Foulkes estimate   =    -954.47377234 Ry
     estimated scf accuracy    <     206.96751794 Ry

     total magnetization       =    -0.00 Bohr mag/cell
     absolute magnetization    =    21.26 Bohr mag/cell

     iteration #  8     ecut=    70.00 Ry     beta= 0.70
     Davidson diagonalization with overlap
     ethr =  6.39E-03,  avg # of iterations =  2.0

     negative rho (up, down):  3.003E-02 4.883E-01

     total cpu time spent up to now is      976.0 secs

     total energy              =    -949.54141465 Ry
     Harris-Foulkes estimate   =    -952.98091421 Ry
     estimated scf accuracy    <      94.51195222 Ry

     total magnetization       =    -0.00 Bohr mag/cell
     absolute magnetization    =    14.69 Bohr mag/cell

     iteration #  9     ecut=    70.00 Ry     beta= 0.70
     Davidson diagonalization with overlap
     ethr =  6.39E-03,  avg # of iterations =  2.0

     negative rho (up, down):  5.091E-02 2.667E-01

     total cpu time spent up to now is     1077.2 secs

     total energy              =    -952.00206323 Ry
     Harris-Foulkes estimate   =    -951.84728418 Ry
     estimated scf accuracy    <      10.53442469 Ry

     total magnetization       =    -0.00 Bohr mag/cell
     absolute magnetization    =     4.20 Bohr mag/cell

     iteration # 10     ecut=    70.00 Ry     beta= 0.70
     Davidson diagonalization with overlap
     ethr =  4.88E-03,  avg # of iterations =  2.0

     negative rho (up, down):  3.507E-02 4.561E-01

     total cpu time spent up to now is     1175.4 secs

     total energy              =    -950.19395881 Ry
     Harris-Foulkes estimate   =    -952.76077222 Ry
     estimated scf accuracy    <      64.67559961 Ry

     total magnetization       =    -0.00 Bohr mag/cell
     absolute magnetization    =    11.70 Bohr mag/cell

     iteration # 11     ecut=    70.00 Ry     beta= 0.70
     Davidson diagonalization with overlap
     ethr =  4.88E-03,  avg # of iterations =  2.0

     negative rho (up, down):  1.879E-02 2.042E-01

     total cpu time spent up to now is     1276.6 secs

     total energy              =    -951.75183757 Ry
     Harris-Foulkes estimate   =    -951.91004989 Ry
     estimated scf accuracy    <       9.59745783 Ry

     total magnetization       =    -0.00 Bohr mag/cell
     absolute magnetization    =     4.63 Bohr mag/cell

     iteration # 12     ecut=    70.00 Ry     beta= 0.70
     Davidson diagonalization with overlap
     ethr =  4.44E-03,  avg # of iterations =  2.0

     negative rho (up, down):  9.905E-03 2.692E-01

     total cpu time spent up to now is     1371.5 secs

     total energy              =    -951.86161036 Ry
     Harris-Foulkes estimate   =    -951.87207771 Ry
     estimated scf accuracy    <       0.36683510 Ry

     total magnetization       =    -0.00 Bohr mag/cell
     absolute magnetization    =     0.90 Bohr mag/cell

     iteration # 13     ecut=    70.00 Ry     beta= 0.70
     Davidson diagonalization with overlap
     ethr =  1.70E-04,  avg # of iterations =  6.5

     negative rho (up, down):  3.676E-03 2.442E-01

     total cpu time spent up to now is     1471.6 secs

     total energy              =    -951.86901498 Ry
     Harris-Foulkes estimate   =    -951.87167715 Ry
     estimated scf accuracy    <       0.14501658 Ry

     total magnetization       =     0.00 Bohr mag/cell
     absolute magnetization    =     0.51 Bohr mag/cell

     iteration # 14     ecut=    70.00 Ry     beta= 0.70
     Davidson diagonalization with overlap
     ethr =  6.71E-05,  avg # of iterations =  2.5

     negative rho (up, down):  7.099E-03 2.523E-01

     total cpu time spent up to now is     1568.6 secs

     total energy              =    -951.86634873 Ry
     Harris-Foulkes estimate   =    -951.87639723 Ry
     estimated scf accuracy    <       0.21627899 Ry

     total magnetization       =     0.00 Bohr mag/cell
     absolute magnetization    =     0.59 Bohr mag/cell

     iteration # 15     ecut=    70.00 Ry     beta= 0.70
     Davidson diagonalization with overlap
     ethr =  6.71E-05,  avg # of iterations =  2.5

     negative rho (up, down):  2.948E-03 1.504E-01

     total cpu time spent up to now is     1665.9 secs

     total energy              =    -951.87330719 Ry
     Harris-Foulkes estimate   =    -951.87156492 Ry
     estimated scf accuracy    <       0.02414523 Ry

     total magnetization       =    -0.00 Bohr mag/cell
     absolute magnetization    =     0.19 Bohr mag/cell

     iteration # 16     ecut=    70.00 Ry     beta= 0.70
     Davidson diagonalization with overlap
     ethr =  1.12E-05,  avg # of iterations =  7.0

     negative rho (up, down):  1.746E-03 1.469E-01

     total cpu time spent up to now is     1765.0 secs

     total energy              =    -951.87530966 Ry
     Harris-Foulkes estimate   =    -951.87374135 Ry
     estimated scf accuracy    <       0.02009274 Ry

     total magnetization       =     0.00 Bohr mag/cell
     absolute magnetization    =     0.22 Bohr mag/cell

     iteration # 17     ecut=    70.00 Ry     beta= 0.70
     Davidson diagonalization with overlap
     ethr =  9.30E-06,  avg # of iterations =  2.5

     negative rho (up, down):  1.485E-03 2.571E-01

     total cpu time spent up to now is     1865.9 secs

     total energy              =    -951.86850484 Ry
     Harris-Foulkes estimate   =    -951.87715000 Ry
     estimated scf accuracy    <       0.19789108 Ry

     total magnetization       =     0.00 Bohr mag/cell
     absolute magnetization    =     0.68 Bohr mag/cell

     iteration # 18     ecut=    70.00 Ry     beta= 0.70
     Davidson diagonalization with overlap
     ethr =  9.30E-06,  avg # of iterations =  2.5

     negative rho (up, down):  1.358E-03 1.559E-01

     total cpu time spent up to now is     1971.0 secs

     total energy              =    -951.87320290 Ry
     Harris-Foulkes estimate   =    -951.87192356 Ry
     estimated scf accuracy    <       0.00278020 Ry

     total magnetization       =    -0.01 Bohr mag/cell
     absolute magnetization    =     0.05 Bohr mag/cell

     iteration # 19     ecut=    70.00 Ry     beta= 0.70
     Davidson diagonalization with overlap
     ethr =  1.29E-06,  avg # of iterations =  3.5

     negative rho (up, down):  1.188E-03 6.886E-02

     total cpu time spent up to now is     2071.4 secs

     total energy              =    -951.87401326 Ry
     Harris-Foulkes estimate   =    -951.87357630 Ry
     estimated scf accuracy    <       0.00008027 Ry

     total magnetization       =     0.00 Bohr mag/cell
     absolute magnetization    =     0.02 Bohr mag/cell

     iteration # 20     ecut=    70.00 Ry     beta= 0.70
     Davidson diagonalization with overlap
     ethr =  3.72E-08,  avg # of iterations =  3.5

     negative rho (up, down):  1.175E-03 2.510E-02

     total cpu time spent up to now is     2190.1 secs

     total energy              =    -951.87411115 Ry
     Harris-Foulkes estimate   =    -951.87404042 Ry
     estimated scf accuracy    <       0.00002449 Ry

     total magnetization       =     0.00 Bohr mag/cell
     absolute magnetization    =     0.02 Bohr mag/cell

     iteration # 21     ecut=    70.00 Ry     beta= 0.70
     Davidson diagonalization with overlap
     ethr =  1.13E-08,  avg # of iterations =  3.0

     negative rho (up, down):  1.171E-03 1.533E-02

     total cpu time spent up to now is     2299.4 secs

     total energy              =    -951.87411967 Ry
     Harris-Foulkes estimate   =    -951.87411773 Ry
     estimated scf accuracy    <       0.00005063 Ry

     total magnetization       =     0.00 Bohr mag/cell
     absolute magnetization    =     0.02 Bohr mag/cell

     iteration # 22     ecut=    70.00 Ry     beta= 0.70
     Davidson diagonalization with overlap
     ethr =  1.13E-08,  avg # of iterations =  2.0

     negative rho (up, down):  1.171E-03 4.236E-03

     total cpu time spent up to now is     2399.1 secs

     total energy              =    -951.87412570 Ry
     Harris-Foulkes estimate   =    -951.87412336 Ry
     estimated scf accuracy    <       0.00000578 Ry

     total magnetization       =     0.00 Bohr mag/cell
     absolute magnetization    =     0.01 Bohr mag/cell

     iteration # 23     ecut=    70.00 Ry     beta= 0.70
     Davidson diagonalization with overlap
     ethr =  2.68E-09,  avg # of iterations =  2.5

     negative rho (up, down):  1.172E-03 1.009E-02

     total cpu time spent up to now is     2497.4 secs

     total energy              =    -951.87412682 Ry
     Harris-Foulkes estimate   =    -951.87412691 Ry
     estimated scf accuracy    <       0.00004095 Ry

     total magnetization       =    -0.00 Bohr mag/cell
     absolute magnetization    =     0.01 Bohr mag/cell

     iteration # 24     ecut=    70.00 Ry     beta= 0.70
     Davidson diagonalization with overlap
     ethr =  2.68E-09,  avg # of iterations =  2.0

     negative rho (up, down):  1.173E-03 2.009E-02

     total cpu time spent up to now is     2596.4 secs

     total energy              =    -951.87412305 Ry
     Harris-Foulkes estimate   =    -951.87412726 Ry
     estimated scf accuracy    <       0.00011202 Ry

     total magnetization       =     0.00 Bohr mag/cell
     absolute magnetization    =     0.02 Bohr mag/cell

     iteration # 25     ecut=    70.00 Ry     beta= 0.70
     Davidson diagonalization with overlap
     ethr =  2.68E-09,  avg # of iterations =  2.5

     negative rho (up, down):  1.171E-03 1.607E-02

     total cpu time spent up to now is     2693.7 secs

     total energy              =    -951.87412249 Ry
     Harris-Foulkes estimate   =    -951.87412382 Ry
     estimated scf accuracy    <       0.00004356 Ry

     total magnetization       =    -0.00 Bohr mag/cell
     absolute magnetization    =     0.01 Bohr mag/cell

     iteration # 26     ecut=    70.00 Ry     beta= 0.70
     Davidson diagonalization with overlap
     ethr =  2.68E-09,  avg # of iterations =  3.0

     negative rho (up, down):  1.171E-03 4.591E-03

     total cpu time spent up to now is     2797.9 secs

     total energy              =    -951.87412657 Ry
     Harris-Foulkes estimate   =    -951.87412438 Ry
     estimated scf accuracy    <       0.00000160 Ry

     total magnetization       =    -0.00 Bohr mag/cell
     absolute magnetization    =     0.01 Bohr mag/cell

     iteration # 27     ecut=    70.00 Ry     beta= 0.70
     Davidson diagonalization with overlap
     ethr =  7.41E-10,  avg # of iterations =  2.5

     negative rho (up, down):  1.171E-03 5.487E-05

     Magnetic moment per site:
     atom:    1    charge:    0.2129    magn:    0.0000    constr:    0.0000
     atom:    2    charge:    0.2141    magn:    0.0000    constr:    0.0000
     atom:    3    charge:    1.7155    magn:   -0.0000    constr:    0.0000
     atom:    4    charge:    1.7152    magn:    0.0000    constr:    0.0000
     atom:    5    charge:    1.7168    magn:   -0.0001    constr:    0.0000
     atom:    6    charge:    1.7146    magn:    0.0001    constr:    0.0000
     atom:    7    charge:    1.7168    magn:   -0.0001    constr:    0.0000
     atom:    8    charge:    1.7152    magn:    0.0000    constr:    0.0000
     atom:    9    charge:    1.7155    magn:   -0.0000    constr:    0.0000
     atom:   10    charge:    1.7176    magn:   -0.0000    constr:    0.0000
     atom:   11    charge:    1.7156    magn:   -0.0000    constr:    0.0000
     atom:   12    charge:    1.7176    magn:   -0.0000    constr:    0.0000
     atom:   13    charge:    1.7156    magn:   -0.0000    constr:    0.0000
     atom:   14    charge:    1.7175    magn:    0.0000    constr:    0.0000
     atom:   15    charge:    1.7117    magn:   -0.0000    constr:    0.0000
     atom:   16    charge:    1.7113    magn:    0.0000    constr:    0.0000
     atom:   17    charge:    1.7205    magn:   -0.0000    constr:    0.0000
     atom:   18    charge:    1.7113    magn:    0.0000    constr:    0.0000
     atom:   19    charge:    1.7117    magn:   -0.0000    constr:    0.0000
     atom:   20    charge:    1.7175    magn:    0.0000    constr:    0.0000
     atom:   21    charge:    1.7156    magn:    0.0000    constr:    0.0000
     atom:   22    charge:    1.7176    magn:   -0.0000    constr:    0.0000
     atom:   23    charge:    1.7155    magn:   -0.0000    constr:    0.0000
     atom:   24    charge:    1.7152    magn:    0.0000    constr:    0.0000
     atom:   25    charge:    1.7117    magn:   -0.0000    constr:    0.0000
     atom:   26    charge:    1.7113    magn:    0.0000    constr:    0.0000
     atom:   27    charge:    1.8195    magn:   -0.0000    constr:    0.0000
     atom:   28    charge:   13.4069    magn:    0.0002    constr:    0.0000
     atom:   29    charge:    1.8195    magn:   -0.0000    constr:    0.0000
     atom:   30    charge:    1.7113    magn:    0.0000    constr:    0.0000
     atom:   31    charge:    1.7117    magn:   -0.0000    constr:    0.0000
     atom:   32    charge:    1.7152    magn:    0.0000    constr:    0.0000
     atom:   33    charge:    1.7168    magn:   -0.0001    constr:    0.0000
     atom:   34    charge:    1.7154    magn:    0.0001    constr:    0.0000
     atom:   35    charge:    1.7168    magn:   -0.0001    constr:    0.0000
     atom:   36    charge:    1.7146    magn:    0.0001    constr:    0.0000
     atom:   37    charge:    1.7205    magn:   -0.0000    constr:    0.0000
     atom:   38    charge:    1.7113    magn:    0.0000    constr:    0.0000
     atom:   39    charge:    1.8195    magn:   -0.0000    constr:    0.0000
     atom:   40    charge:    1.7113    magn:    0.0000    constr:    0.0000
     atom:   41    charge:    1.7205    magn:   -0.0000    constr:    0.0000
     atom:   42    charge:    1.7146    magn:    0.0001    constr:    0.0000
     atom:   43    charge:    1.7168    magn:   -0.0001    constr:    0.0000
     atom:   44    charge:    1.7154    magn:    0.0001    constr:    0.0000
     atom:   45    charge:    1.7212    magn:   -0.0000    constr:    0.0000
     atom:   46    charge:    1.7154    magn:    0.0001    constr:    0.0000
     atom:   47    charge:    1.7168    magn:   -0.0001    constr:    0.0000
     atom:   48    charge:    1.7152    magn:    0.0000    constr:    0.0000
     atom:   49    charge:    1.7117    magn:   -0.0000    constr:    0.0000
     atom:   50    charge:    1.7175    magn:    0.0000    constr:    0.0000
     atom:   51    charge:    1.7117    magn:   -0.0000    constr:    0.0000
     atom:   52    charge:    1.7152    magn:    0.0000    constr:    0.0000

     total cpu time spent up to now is     2895.8 secs

     End of self-consistent calculation

 ------ SPIN UP ------------


          k = 0.0000 0.0000 0.0000 ( 87777 PWs)   bands (ev):

  -107.9417 -69.1074 -69.1074 -67.0361 -19.8339 -19.0142 -19.0142 -18.8950
   -18.8949 -18.8099 -18.7455 -17.1700 -17.1700 -17.1349 -17.0867 -17.0867
   -16.7610 -16.3191 -16.3191 -16.1727 -16.1727 -16.1588 -15.6802 -14.3188
   -14.3188 -14.1568 -14.0227 -14.0227 -13.5223 -13.1356 -13.1356 -13.0835
   -12.9083 -12.9083 -12.5099 -12.0841 -12.0840 -11.7191 -11.5758 -11.5757
   -10.9455 -10.4428 -10.4427  -9.5843  -9.3726  -9.3726  -9.2327  -9.2180
    -9.2180  -9.2032  -8.9602  -8.9602  -8.6005  -8.6005  -8.4666  -7.9949
    -7.9087  -7.8771  -7.8771  -7.6732  -7.5489  -7.5488  -7.4558  -7.4558
    -7.1851  -6.8529  -6.8274  -6.8274  -6.7537  -6.6264  -6.6263  -6.5618
    -6.5565  -6.5565  -6.5291  -6.4687  -6.4384  -6.4384  -6.2966  -6.2965
    -6.2325  -5.5539  -5.5538  -5.0375  -4.9561  -4.8495  -4.8495  -4.7636
    -4.7227  -4.7227  -4.4103  -4.4063  -4.4062  -3.8427  -3.8427  -3.7702
    -3.7658  -3.7658  -3.5859  -3.4297  -3.4297  -3.2788  -1.8978  -1.8121
    -1.8121  -1.5999  -1.5999  -1.1457   0.0812   0.0817   0.8980   0.9562
     0.9562   1.2023   1.2023   1.5411   2.4957   2.7955   2.7956   2.8480
     3.0260   3.0260   3.4232   3.6240   3.6241   3.7406   3.7406   3.7629
     3.9129   4.2476

     occupation numbers 
     1.0000   1.0000   1.0000   1.0000   1.0000   1.0000   1.0000   1.0000
     1.0000   1.0000   1.0000   1.0000   1.0000   1.0000   1.0000   1.0000
     1.0000   1.0000   1.0000   1.0000   1.0000   1.0000   1.0000   1.0000
     1.0000   1.0000   1.0000   1.0000   1.0000   1.0000   1.0000   1.0000
     1.0000   1.0000   1.0000   1.0000   1.0000   1.0000   1.0000   1.0000
     1.0000   1.0000   1.0000   1.0000   1.0000   1.0000   1.0000   1.0000
     1.0000   1.0000   1.0000   1.0000   1.0000   1.0000   1.0000   1.0000
     1.0000   1.0000   1.0000   1.0000   1.0000   1.0000   1.0000   1.0000
     1.0000   1.0000   1.0000   1.0000   1.0000   1.0000   1.0000   1.0000
     1.0000   1.0000   1.0000   1.0000   1.0000   1.0000   1.0000   1.0000
     1.0000   1.0000   1.0000   1.0000   1.0000   1.0000   1.0000   1.0000
     1.0000   1.0000   1.0000   1.0000   1.0000   1.0000   1.0000   1.0000
     1.0000   1.0000   1.0000   1.0000   1.0000   1.0000   1.0000   1.0000
     1.0000   1.0000   1.0000   1.0000   0.0000   0.0000   0.0000   0.0000
     0.0000   0.0000   0.0000   0.0000   0.0000   0.0000   0.0000   0.0000
     0.0000   0.0000   0.0000   0.0000   0.0000   0.0000   0.0000   0.0000
     0.0000   0.0000

 ------ SPIN DOWN ----------


          k = 0.0000 0.0000 0.0000 ( 87777 PWs)   bands (ev):

  -107.9408 -69.1064 -69.1064 -67.0355 -19.8339 -19.0143 -19.0142 -18.8950
   -18.8949 -18.8099 -18.7455 -17.1700 -17.1700 -17.1350 -17.0868 -17.0867
   -16.7610 -16.3191 -16.3191 -16.1728 -16.1728 -16.1588 -15.6802 -14.3189
   -14.3189 -14.1568 -14.0227 -14.0227 -13.5224 -13.1356 -13.1356 -13.0836
   -12.9084 -12.9083 -12.5099 -12.0841 -12.0840 -11.7191 -11.5758 -11.5758
   -10.9456 -10.4427 -10.4427  -9.5843  -9.3726  -9.3726  -9.2327  -9.2180
    -9.2180  -9.2032  -8.9603  -8.9602  -8.6005  -8.6005  -8.4667  -7.9949
    -7.9087  -7.8770  -7.8769  -7.6733  -7.5489  -7.5489  -7.4557  -7.4557
    -7.1851  -6.8529  -6.8274  -6.8274  -6.7536  -6.6264  -6.6264  -6.5619
    -6.5566  -6.5566  -6.5291  -6.4687  -6.4383  -6.4383  -6.2966  -6.2965
    -6.2326  -5.5539  -5.5539  -5.0375  -4.9561  -4.8495  -4.8495  -4.7637
    -4.7227  -4.7227  -4.4103  -4.4063  -4.4062  -3.8428  -3.8428  -3.7702
    -3.7658  -3.7658  -3.5858  -3.4296  -3.4296  -3.2787  -1.8980  -1.8119
    -1.8119  -1.5999  -1.5999  -1.1459   0.0813   0.0815   0.8978   0.9563
     0.9563   1.2023   1.2023   1.5412   2.4960   2.7954   2.7954   2.8480
     3.0260   3.0260   3.4232   3.6242   3.6243   3.7407   3.7408   3.7631
     3.9131   4.2478

     occupation numbers 
     1.0000   1.0000   1.0000   1.0000   1.0000   1.0000   1.0000   1.0000
     1.0000   1.0000   1.0000   1.0000   1.0000   1.0000   1.0000   1.0000
     1.0000   1.0000   1.0000   1.0000   1.0000   1.0000   1.0000   1.0000
     1.0000   1.0000   1.0000   1.0000   1.0000   1.0000   1.0000   1.0000
     1.0000   1.0000   1.0000   1.0000   1.0000   1.0000   1.0000   1.0000
     1.0000   1.0000   1.0000   1.0000   1.0000   1.0000   1.0000   1.0000
     1.0000   1.0000   1.0000   1.0000   1.0000   1.0000   1.0000   1.0000
     1.0000   1.0000   1.0000   1.0000   1.0000   1.0000   1.0000   1.0000
     1.0000   1.0000   1.0000   1.0000   1.0000   1.0000   1.0000   1.0000
     1.0000   1.0000   1.0000   1.0000   1.0000   1.0000   1.0000   1.0000
     1.0000   1.0000   1.0000   1.0000   1.0000   1.0000   1.0000   1.0000
     1.0000   1.0000   1.0000   1.0000   1.0000   1.0000   1.0000   1.0000
     1.0000   1.0000   1.0000   1.0000   1.0000   1.0000   1.0000   1.0000
     1.0000   1.0000   1.0000   1.0000   0.0000   0.0000   0.0000   0.0000
     0.0000   0.0000   0.0000   0.0000   0.0000   0.0000   0.0000   0.0000
     0.0000   0.0000   0.0000   0.0000   0.0000   0.0000   0.0000   0.0000
     0.0000   0.0000

     the Fermi energy is    -0.9864 ev

!    total energy              =    -951.87412696 Ry
     Harris-Foulkes estimate   =    -951.87412676 Ry
     estimated scf accuracy    <       0.00000093 Ry

     The total energy is the sum of the following terms:

     one-electron contribution =   -2992.38443389 Ry
     hartree contribution      =    1538.79673419 Ry
     xc contribution           =    -265.76364132 Ry
     ewald contribution        =     767.47721405 Ry
     smearing contrib. (-TS)   =       0.00000000 Ry

     total magnetization       =     0.00 Bohr mag/cell
     absolute magnetization    =     0.00 Bohr mag/cell

     convergence has been achieved in  27 iterations

     Writing output data file distance-2.2.save/

     init_run     :     72.31s CPU     73.61s WALL (       1 calls)
     electrons    :   2774.08s CPU   2821.18s WALL (       1 calls)

     Called by init_run:
     wfcinit      :     42.39s CPU     42.66s WALL (       1 calls)
     wfcinit:atom :      0.05s CPU      0.10s WALL (       2 calls)
     wfcinit:wfcr :     41.96s CPU     42.14s WALL (       2 calls)
     potinit      :     12.45s CPU     12.83s WALL (       1 calls)
     hinit0       :      8.92s CPU      8.95s WALL (       1 calls)

     Called by electrons:
     c_bands      :   1785.66s CPU   1794.31s WALL (      27 calls)
     sum_band     :    573.44s CPU    589.38s WALL (      27 calls)
     v_of_rho     :    204.86s CPU    213.69s WALL (      28 calls)
     v_h          :      2.20s CPU      2.24s WALL (      28 calls)
     v_xc         :    202.66s CPU    211.46s WALL (      28 calls)
     newd         :    206.04s CPU    220.32s WALL (      28 calls)
     mix_rho      :     12.19s CPU     12.36s WALL (      27 calls)

     Called by c_bands:
     init_us_2    :      4.97s CPU      5.02s WALL (     110 calls)
     cegterg      :   1772.47s CPU   1781.06s WALL (      54 calls)

     Called by sum_band:
     sum_band:bec :      0.05s CPU      0.05s WALL (      54 calls)
     addusdens    :    349.21s CPU    363.90s WALL (      27 calls)

     Called by *egterg:
     h_psi        :    927.73s CPU    933.69s WALL (     222 calls)
     s_psi        :    313.58s CPU    313.75s WALL (     222 calls)
     g_psi        :      0.99s CPU      1.00s WALL (     166 calls)
     cdiaghg      :     15.23s CPU     15.24s WALL (     220 calls)
     cegterg:over :    222.60s CPU    222.69s WALL (     166 calls)
     cegterg:upda :    135.99s CPU    136.75s WALL (     166 calls)
     cegterg:last :     96.25s CPU     96.28s WALL (      54 calls)

     Called by h_psi:
     h_psi:pot    :    926.64s CPU    931.44s WALL (     222 calls)
     h_psi:calbec :    312.45s CPU    312.60s WALL (     222 calls)
     vloc_psi     :    301.62s CPU    306.14s WALL (     222 calls)
     add_vuspsi   :    312.57s CPU    312.70s WALL (     222 calls)

     General routines
     calbec       :    445.68s CPU    445.88s WALL (     276 calls)
     fft          :    116.45s CPU    120.13s WALL (    2094 calls)
     ffts         :      2.10s CPU      2.18s WALL (     110 calls)
     fftw         :    321.18s CPU    326.06s WALL (   40052 calls)
     interpolate  :      4.82s CPU      4.91s WALL (      56 calls)

     Parallel routines
     fft_scatt_xy :     76.94s CPU     77.78s WALL (   42256 calls)
     fft_scatt_yz :    153.65s CPU    160.16s WALL (   42256 calls)

     PWSCF        :  47m27.75s CPU  48m16.53s WALL


   This run was terminated on:   9:28: 7  20Dec2022            

=------------------------------------------------------------------------------=
   JOB DONE.
=------------------------------------------------------------------------------=
