
     Program PWSCF v.6.4.1 starts on 20Dec2022 at  9:28: 7 

     This program is part of the open-source Quantum ESPRESSO suite
     for quantum simulation of materials; please cite
         "P. Giannozzi et al., J. Phys.:Condens. Matter 21 395502 (2009);
         "P. Giannozzi et al., J. Phys.:Condens. Matter 29 465901 (2017);
          URL http://www.quantum-espresso.org", 
     in publications or presentations arising from this work. More details at
     http://www.quantum-espresso.org/quote

     Parallel version (MPI), running on     6 processors

     MPI processes distributed on     1 nodes
     R & G space division:  proc/nbgrp/npool/nimage =       6
     Reading input from distance-2.0.in

     Current dimensions of program PWSCF are:
     Max number of different atomic species (ntypx) = 10
     Max number of k-points (npk) =  40000
     Max angular momentum in pseudopotentials (lmaxx) =  3

     IMPORTANT: XC functional enforced from input :
     Exchange-correlation      = RVV10 ( 1  4 13  4 3 0)
     Any further DFT definition will be discarded
     Please, verify this is what you really want

               file H.pbe-rrkjus.UPF: wavefunction(s)  1S renormalized

     Subspace diagonalization in iterative solution of the eigenvalue problem:
     a serial algorithm will be used


     Parallelization info
     --------------------
     sticks:   dense  smooth     PW     G-vecs:    dense   smooth      PW
     Min        3051    1746    432               270999   117096   14629
     Max        3053    1747    437               271001   117099   14630
     Sum       18313   10477   2611              1626001   702581   87777



     bravais-lattice index     =            4
     lattice parameter (alat)  =      23.2937  a.u.
     unit-cell volume          =    8879.8548 (a.u.)^3
     number of atoms/cell      =           52
     number of atomic types    =            3
     number of electrons       =       216.00
     number of Kohn-Sham states=          130
     kinetic-energy cutoff     =      70.0000  Ry
     charge density cutoff     =     490.0000  Ry
     convergence threshold     =      1.0E-06
     mixing beta               =       0.7000
     number of iterations used =            8  plain     mixing
     Exchange-correlation      = RVV10 ( 1  4 13  4 3 0)

     celldm(1)=  23.293684  celldm(2)=   0.000000  celldm(3)=   0.811261
     celldm(4)=   0.000000  celldm(5)=   0.000000  celldm(6)=   0.000000

     crystal axes: (cart. coord. in units of alat)
               a(1) = (   1.000000   0.000000   0.000000 )  
               a(2) = (  -0.500000   0.866025   0.000000 )  
               a(3) = (   0.000000   0.000000   0.811261 )  

     reciprocal axes: (cart. coord. in units 2 pi/alat)
               b(1) = (  1.000000  0.577350 -0.000000 )  
               b(2) = (  0.000000  1.154701  0.000000 )  
               b(3) = (  0.000000 -0.000000  1.232649 )  


     PseudoPot. # 1 for H  read from file:
     /home/cristian/Escritorio/Proyecto_Grafeno/pseudopotenciales/H.pbe-rrkjus.UPF
     MD5 check sum: 7cc9d459525c9a0585f487a71c3c9563
     Pseudo is Ultrasoft, Zval =  1.0
     Generated by new atomic code, or converted to UPF format
     Using radial grid of 1061 points,  2 beta functions with: 
                l(1) =   0
                l(2) =   0
     Q(r) pseudized with 0 coefficients 


     PseudoPot. # 2 for C  read from file:
     /home/cristian/Escritorio/Proyecto_Grafeno/pseudopotenciales/C.pbe-n-rrkjus_psl.1.0.0.UPF
     MD5 check sum: 1fdd950c42eb37d8afe3dd2f8d12311e
     Pseudo is Ultrasoft + core correction, Zval =  4.0
     Generated using "atomic" code by A. Dal Corso v.6.3MaX
     Using radial grid of 1073 points,  4 beta functions with: 
                l(1) =   0
                l(2) =   0
                l(3) =   1
                l(4) =   1
     Q(r) pseudized with 0 coefficients 


     PseudoPot. # 3 for Ni read from file:
     /home/cristian/Escritorio/Proyecto_Grafeno/pseudopotenciales/Ni.pbe-spn-rrkjus_psl.1.0.0.UPF
     MD5 check sum: 8b3fc9aac6dafe35f580d41bb18c3945
     Pseudo is Ultrasoft + core correction, Zval = 18.0
     Generated using "atomic" code by A. Dal Corso v.6.3
     Using radial grid of 1195 points,  6 beta functions with: 
                l(1) =   0
                l(2) =   0
                l(3) =   1
                l(4) =   1
                l(5) =   2
                l(6) =   2
     Q(r) pseudized with 0 coefficients 


     vdW kernel table read from file rVV10_kernel_table
     MD5 check sum: b8e2538accc0c0b3206b45ba4daaba6c

     atomic species   valence    mass     pseudopotential
        H              1.00     1.00794     H ( 1.00)
        C              4.00    12.01070     C ( 1.00)
        Ni            18.00    58.69340     Ni( 1.00)

     Starting magnetic structure 
     atomic species   magnetization
        H            0.500
        C            0.300
        Ni           0.800

      2 Sym. Ops. (no inversion) found


                                    s                        frac. trans.

      isym =  1     identity                                     

 cryst.   s( 1) = (     1          0          0      )
                  (     0          1          0      )
                  (     0          0          1      )

 cart.    s( 1) = (  1.0000000  0.0000000  0.0000000 )
                  (  0.0000000  1.0000000  0.0000000 )
                  (  0.0000000  0.0000000  1.0000000 )


      isym =  2     inv. 180 deg rotation - cryst. axis [1,1,0]  

 cryst.   s( 2) = (     0         -1          0      )
                  (    -1          0          0      )
                  (     0          0          1      )

 cart.    s( 2) = (  0.5000000 -0.8660254  0.0000000 )
                  ( -0.8660254 -0.5000000  0.0000000 )
                  (  0.0000000  0.0000000  1.0000000 )


     point group C_s (m)    
     there are  2 classes
     the character table:

       E     s    
A'     1.00  1.00
A''    1.00 -1.00

     the symmetry operations in each class and the name of the first element:

     E        1
          identity                                               
     s        2
          inv. 180 deg rotation - cryst. axis [1,1,0]            

   Cartesian axes

     site n.     atom                  positions (alat units)
         1           H   tau(   1) = (   0.2000000   0.4618802   0.1622522  )
         2           H   tau(   2) = (   0.2000000   0.4618802   0.2232649  )
         3           C   tau(   3) = (   0.0000000   0.0000000   0.0000000  )
         4           C   tau(   4) = (   0.0000000   0.1154701   0.0000000  )
         5           C   tau(   5) = (  -0.1000000   0.1732051   0.0000000  )
         6           C   tau(   6) = (  -0.1000000   0.2886751   0.0000000  )
         7           C   tau(   7) = (  -0.2000000   0.3464102   0.0000000  )
         8           C   tau(   8) = (  -0.2000000   0.4618802   0.0000000  )
         9           C   tau(   9) = (  -0.3000000   0.5196152   0.0000000  )
        10           C   tau(  10) = (  -0.3000000   0.6350853   0.0000000  )
        11           C   tau(  11) = (  -0.4000000   0.6928203   0.0000000  )
        12           C   tau(  12) = (  -0.4000000   0.8082904   0.0000000  )
        13           C   tau(  13) = (   0.2000000   0.0000000   0.0000000  )
        14           C   tau(  14) = (   0.2000000   0.1154701   0.0000000  )
        15           C   tau(  15) = (   0.1000000   0.1732051   0.0000000  )
        16           C   tau(  16) = (   0.1000000   0.2886751   0.0000000  )
        17           C   tau(  17) = (   0.0000000   0.3464102   0.0000000  )
        18           C   tau(  18) = (   0.0000000   0.4618802   0.0000000  )
        19           C   tau(  19) = (  -0.1000000   0.5196152   0.0000000  )
        20           C   tau(  20) = (  -0.1000000   0.6350853   0.0000000  )
        21           C   tau(  21) = (  -0.2000000   0.6928203   0.0000000  )
        22           C   tau(  22) = (  -0.2000000   0.8082904   0.0000000  )
        23           C   tau(  23) = (   0.4000000   0.0000000   0.0000000  )
        24           C   tau(  24) = (   0.4000000   0.1154701   0.0000000  )
        25           C   tau(  25) = (   0.3000000   0.1732051   0.0000000  )
        26           C   tau(  26) = (   0.3000000   0.2886751   0.0000000  )
        27           C   tau(  27) = (   0.2000000   0.3464102   0.0000000  )
        28           Ni  tau(  28) = (   0.2000000   0.4618802   0.0000000  )
        29           C   tau(  29) = (   0.1000000   0.5196152   0.0000000  )
        30           C   tau(  30) = (   0.1000000   0.6350853   0.0000000  )
        31           C   tau(  31) = (   0.0000000   0.6928203   0.0000000  )
        32           C   tau(  32) = (   0.0000000   0.8082904   0.0000000  )
        33           C   tau(  33) = (   0.6000000   0.0000000   0.0000000  )
        34           C   tau(  34) = (   0.6000000   0.1154701   0.0000000  )
        35           C   tau(  35) = (   0.5000000   0.1732051   0.0000000  )
        36           C   tau(  36) = (   0.5000000   0.2886751   0.0000000  )
        37           C   tau(  37) = (   0.4000000   0.3464102   0.0000000  )
        38           C   tau(  38) = (   0.4000000   0.4618802   0.0000000  )
        39           C   tau(  39) = (   0.3000000   0.5196152   0.0000000  )
        40           C   tau(  40) = (   0.3000000   0.6350853   0.0000000  )
        41           C   tau(  41) = (   0.2000000   0.6928203   0.0000000  )
        42           C   tau(  42) = (   0.2000000   0.8082904   0.0000000  )
        43           C   tau(  43) = (   0.8000000   0.0000000   0.0000000  )
        44           C   tau(  44) = (   0.8000000   0.1154701   0.0000000  )
        45           C   tau(  45) = (   0.7000000   0.1732051   0.0000000  )
        46           C   tau(  46) = (   0.7000000   0.2886751   0.0000000  )
        47           C   tau(  47) = (   0.6000000   0.3464102   0.0000000  )
        48           C   tau(  48) = (   0.6000000   0.4618802   0.0000000  )
        49           C   tau(  49) = (   0.5000000   0.5196152   0.0000000  )
        50           C   tau(  50) = (   0.5000000   0.6350853   0.0000000  )
        51           C   tau(  51) = (   0.4000000   0.6928203   0.0000000  )
        52           C   tau(  52) = (   0.4000000   0.8082904   0.0000000  )

   Crystallographic axes

     site n.     atom                  positions (cryst. coord.)
         1           H   tau(   1) = (  0.4666667  0.5333333  0.2000000  )
         2           H   tau(   2) = (  0.4666667  0.5333333  0.2752072  )
         3           C   tau(   3) = (  0.0000000  0.0000000  0.0000000  )
         4           C   tau(   4) = (  0.0666667  0.1333333  0.0000000  )
         5           C   tau(   5) = (  0.0000000  0.2000000  0.0000000  )
         6           C   tau(   6) = (  0.0666667  0.3333333  0.0000000  )
         7           C   tau(   7) = (  0.0000000  0.4000000  0.0000000  )
         8           C   tau(   8) = (  0.0666667  0.5333333  0.0000000  )
         9           C   tau(   9) = (  0.0000000  0.6000000  0.0000000  )
        10           C   tau(  10) = (  0.0666667  0.7333333  0.0000000  )
        11           C   tau(  11) = (  0.0000000  0.8000000  0.0000000  )
        12           C   tau(  12) = (  0.0666667  0.9333333  0.0000000  )
        13           C   tau(  13) = (  0.2000000  0.0000000  0.0000000  )
        14           C   tau(  14) = (  0.2666667  0.1333333  0.0000000  )
        15           C   tau(  15) = (  0.2000000  0.2000000  0.0000000  )
        16           C   tau(  16) = (  0.2666667  0.3333333  0.0000000  )
        17           C   tau(  17) = (  0.2000000  0.4000000  0.0000000  )
        18           C   tau(  18) = (  0.2666667  0.5333333  0.0000000  )
        19           C   tau(  19) = (  0.2000000  0.6000000  0.0000000  )
        20           C   tau(  20) = (  0.2666667  0.7333333  0.0000000  )
        21           C   tau(  21) = (  0.2000000  0.8000000  0.0000000  )
        22           C   tau(  22) = (  0.2666667  0.9333333  0.0000000  )
        23           C   tau(  23) = (  0.4000000  0.0000000  0.0000000  )
        24           C   tau(  24) = (  0.4666667  0.1333333  0.0000000  )
        25           C   tau(  25) = (  0.4000000  0.2000000  0.0000000  )
        26           C   tau(  26) = (  0.4666667  0.3333333  0.0000000  )
        27           C   tau(  27) = (  0.4000000  0.4000000  0.0000000  )
        28           Ni  tau(  28) = (  0.4666667  0.5333333  0.0000000  )
        29           C   tau(  29) = (  0.4000000  0.6000000  0.0000000  )
        30           C   tau(  30) = (  0.4666667  0.7333333  0.0000000  )
        31           C   tau(  31) = (  0.4000000  0.8000000  0.0000000  )
        32           C   tau(  32) = (  0.4666667  0.9333333  0.0000000  )
        33           C   tau(  33) = (  0.6000000  0.0000000  0.0000000  )
        34           C   tau(  34) = (  0.6666667  0.1333333  0.0000000  )
        35           C   tau(  35) = (  0.6000000  0.2000000  0.0000000  )
        36           C   tau(  36) = (  0.6666667  0.3333333  0.0000000  )
        37           C   tau(  37) = (  0.6000000  0.4000000  0.0000000  )
        38           C   tau(  38) = (  0.6666667  0.5333333  0.0000000  )
        39           C   tau(  39) = (  0.6000000  0.6000000  0.0000000  )
        40           C   tau(  40) = (  0.6666667  0.7333333  0.0000000  )
        41           C   tau(  41) = (  0.6000000  0.8000000  0.0000000  )
        42           C   tau(  42) = (  0.6666667  0.9333333  0.0000000  )
        43           C   tau(  43) = (  0.8000000  0.0000000  0.0000000  )
        44           C   tau(  44) = (  0.8666667  0.1333333  0.0000000  )
        45           C   tau(  45) = (  0.8000000  0.2000000  0.0000000  )
        46           C   tau(  46) = (  0.8666667  0.3333333  0.0000000  )
        47           C   tau(  47) = (  0.8000000  0.4000000  0.0000000  )
        48           C   tau(  48) = (  0.8666667  0.5333333  0.0000000  )
        49           C   tau(  49) = (  0.8000000  0.6000000  0.0000000  )
        50           C   tau(  50) = (  0.8666667  0.7333333  0.0000000  )
        51           C   tau(  51) = (  0.8000000  0.8000000  0.0000000  )
        52           C   tau(  52) = (  0.8666667  0.9333333  0.0000000  )

     number of k points=     1  Marzari-Vanderbilt smearing, width (Ry)=  0.0010
                       cart. coord. in units 2pi/alat
        k(    1) = (   0.0000000   0.0000000   0.0000000), wk =   1.0000000

                       cryst. coord.
        k(    1) = (   0.0000000   0.0000000   0.0000000), wk =   1.0000000

     Dense  grid:  1626001 G-vectors     FFT dimensions: ( 180, 180, 135)

     Smooth grid:   702581 G-vectors     FFT dimensions: ( 125, 125, 108)

     Dynamical RAM for                 wfc:      29.03 MB

     Dynamical RAM for     wfc (w. buffer):      87.10 MB

     Dynamical RAM for           str. fact:      12.41 MB

     Dynamical RAM for           local pot:       0.00 MB

     Dynamical RAM for          nlocal pot:      92.46 MB

     Dynamical RAM for                qrad:      19.73 MB

     Dynamical RAM for          rho,v,vnew:      58.92 MB

     Dynamical RAM for               rhoin:      19.64 MB

     Dynamical RAM for            rho*nmix:     132.32 MB

     Dynamical RAM for           G-vectors:      16.40 MB

     Dynamical RAM for          h,s,v(r/c):      12.38 MB

     Dynamical RAM for          <psi|beta>:       0.82 MB

     Dynamical RAM for                 psi:     116.14 MB

     Dynamical RAM for                hpsi:     116.14 MB

     Dynamical RAM for                spsi:     116.14 MB

     Dynamical RAM for      wfcinit/wfcrot:      93.90 MB

     Dynamical RAM for           addusdens:     975.89 MB

     Estimated static dynamical RAM per process >     489.64 MB

     Estimated max dynamical RAM per process >       1.43 GB

     Estimated total dynamical RAM >       8.59 GB
     Generating pointlists ...
     new r_m :   0.0252 (alat units)  0.5862 (a.u.) for type    1
     new r_m :   0.0476 (alat units)  1.1095 (a.u.) for type    2
     new r_m :   0.0476 (alat units)  1.1095 (a.u.) for type    3

     Check: negative core charge=   -0.000002

     Initial potential from superposition of free atoms

     starting charge  215.80530, renormalised to  216.00000

     negative rho (up, down):  1.626E-04 1.799E-02


---------------------------------------------------------------------------------
Carrying out rVV10 run using the following parameters:
Nqs =      20    Nr_points =    1024   r_max =   100.000
b_value =  6.30000    beta =  0.00901
     q_mesh =  0.00010000  0.00030000  0.00058939  0.00100810
               0.00161396  0.00249058  0.00375900  0.00559430
               0.00824984  0.01209221  0.01765183  0.02569619
               0.03733578  0.05417739  0.07854596  0.11380545
               0.16482331  0.23864234  0.34545298  0.50000000

Gradients computed in Reciprocal space

---------------------------------------------------------------------------------


     Starting wfcs are  208 randomized atomic wfcs

     total cpu time spent up to now is       77.9 secs

     Self-consistent Calculation

     iteration #  1     ecut=    70.00 Ry     beta= 0.70
     Davidson diagonalization with overlap
     ethr =  1.00E-02,  avg # of iterations =  7.0

     negative rho (up, down):  3.205E-04 1.580E-02

     total cpu time spent up to now is      212.9 secs

     total energy              =    -947.16671026 Ry
     Harris-Foulkes estimate   =    -949.62280862 Ry
     estimated scf accuracy    <      13.71528465 Ry

     total magnetization       =     6.00 Bohr mag/cell
     absolute magnetization    =     6.73 Bohr mag/cell

     iteration #  2     ecut=    70.00 Ry     beta= 0.70
     Davidson diagonalization with overlap
     ethr =  6.35E-03,  avg # of iterations =  3.5

     negative rho (up, down):  4.068E-02 3.889E-01

     total cpu time spent up to now is      328.7 secs

     total energy              =    -956.29300203 Ry
     Harris-Foulkes estimate   =    -956.17490129 Ry
     estimated scf accuracy    <      69.64990914 Ry

     total magnetization       =     4.00 Bohr mag/cell
     absolute magnetization    =    12.94 Bohr mag/cell

     iteration #  3     ecut=    70.00 Ry     beta= 0.70
     Davidson diagonalization with overlap
     ethr =  6.35E-03,  avg # of iterations =  3.0

     negative rho (up, down):  1.963E-02 5.540E-01

     total cpu time spent up to now is      429.5 secs

     total energy              =    -945.47436105 Ry
     Harris-Foulkes estimate   =    -967.26802164 Ry
     estimated scf accuracy    <     801.68578743 Ry

     total magnetization       =    -0.00 Bohr mag/cell
     absolute magnetization    =    40.70 Bohr mag/cell

     iteration #  4     ecut=    70.00 Ry     beta= 0.70
     Davidson diagonalization with overlap
     ethr =  6.35E-03,  avg # of iterations =  4.5

     negative rho (up, down):  6.087E-03 5.072E-01

     total cpu time spent up to now is      537.5 secs

     total energy              =    -946.65505750 Ry
     Harris-Foulkes estimate   =    -953.01793488 Ry
     estimated scf accuracy    <      78.77949643 Ry

     total magnetization       =     0.00 Bohr mag/cell
     absolute magnetization    =    13.26 Bohr mag/cell

     iteration #  5     ecut=    70.00 Ry     beta= 0.70
     Davidson diagonalization with overlap
     ethr =  6.35E-03,  avg # of iterations =  3.5

     negative rho (up, down):  1.080E-01 2.295E-01

     total cpu time spent up to now is      660.5 secs

     total energy              =    -952.97138177 Ry
     Harris-Foulkes estimate   =    -953.35488409 Ry
     estimated scf accuracy    <      96.13652328 Ry

     total magnetization       =     4.00 Bohr mag/cell
     absolute magnetization    =    16.44 Bohr mag/cell

     iteration #  6     ecut=    70.00 Ry     beta= 0.70
     Davidson diagonalization with overlap
     ethr =  6.35E-03,  avg # of iterations =  2.0

     negative rho (up, down):  5.809E-02 4.813E-01

     total cpu time spent up to now is      760.1 secs

     total energy              =    -953.08346856 Ry
     Harris-Foulkes estimate   =    -954.54881163 Ry
     estimated scf accuracy    <     189.66234587 Ry

     total magnetization       =     1.53 Bohr mag/cell
     absolute magnetization    =    21.34 Bohr mag/cell

     iteration #  7     ecut=    70.00 Ry     beta= 0.70
     Davidson diagonalization with overlap
     ethr =  6.35E-03,  avg # of iterations =  2.0

     negative rho (up, down):  3.919E-02 4.893E-01

     total cpu time spent up to now is      855.3 secs

     total energy              =    -946.92113140 Ry
     Harris-Foulkes estimate   =    -953.47888612 Ry
     estimated scf accuracy    <     136.30101345 Ry

     total magnetization       =    -0.00 Bohr mag/cell
     absolute magnetization    =    17.70 Bohr mag/cell

     iteration #  8     ecut=    70.00 Ry     beta= 0.70
     Davidson diagonalization with overlap
     ethr =  6.35E-03,  avg # of iterations =  2.5

     negative rho (up, down):  4.954E-02 3.647E-01

     total cpu time spent up to now is      966.5 secs

     total energy              =    -951.66973046 Ry
     Harris-Foulkes estimate   =    -952.84949620 Ry
     estimated scf accuracy    <      81.79858493 Ry

     total magnetization       =    -0.00 Bohr mag/cell
     absolute magnetization    =    12.87 Bohr mag/cell

     iteration #  9     ecut=    70.00 Ry     beta= 0.70
     Davidson diagonalization with overlap
     ethr =  6.35E-03,  avg # of iterations =  2.0

     negative rho (up, down):  4.788E-02 4.149E-01

     total cpu time spent up to now is     1063.8 secs

     total energy              =    -950.94519217 Ry
     Harris-Foulkes estimate   =    -952.22198013 Ry
     estimated scf accuracy    <      30.05465197 Ry

     total magnetization       =    -0.00 Bohr mag/cell
     absolute magnetization    =     7.83 Bohr mag/cell

     iteration # 10     ecut=    70.00 Ry     beta= 0.70
     Davidson diagonalization with overlap
     ethr =  6.35E-03,  avg # of iterations =  2.0

     negative rho (up, down):  3.926E-03 1.772E-01

     total cpu time spent up to now is     1161.3 secs

     total energy              =    -951.77774966 Ry
     Harris-Foulkes estimate   =    -951.84167168 Ry
     estimated scf accuracy    <       4.28323650 Ry

     total magnetization       =    -0.00 Bohr mag/cell
     absolute magnetization    =     2.98 Bohr mag/cell

     iteration # 11     ecut=    70.00 Ry     beta= 0.70
     Davidson diagonalization with overlap
     ethr =  1.98E-03,  avg # of iterations =  1.5

     negative rho (up, down):  1.072E-02 2.120E-01

     total cpu time spent up to now is     1255.8 secs

     total energy              =    -951.84130773 Ry
     Harris-Foulkes estimate   =    -951.87235828 Ry
     estimated scf accuracy    <       0.59449919 Ry

     total magnetization       =    -0.00 Bohr mag/cell
     absolute magnetization    =     1.03 Bohr mag/cell

     iteration # 12     ecut=    70.00 Ry     beta= 0.70
     Davidson diagonalization with overlap
     ethr =  2.75E-04,  avg # of iterations =  6.0

     negative rho (up, down):  2.136E-03 3.048E-01

     total cpu time spent up to now is     1353.9 secs

     total energy              =    -951.85013661 Ry
     Harris-Foulkes estimate   =    -951.86075052 Ry
     estimated scf accuracy    <       0.42001875 Ry

     total magnetization       =     0.00 Bohr mag/cell
     absolute magnetization    =     1.03 Bohr mag/cell

     iteration # 13     ecut=    70.00 Ry     beta= 0.70
     Davidson diagonalization with overlap
     ethr =  1.94E-04,  avg # of iterations =  4.0

     negative rho (up, down):  1.596E-03 2.671E-01

     total cpu time spent up to now is     1450.0 secs

     total energy              =    -951.85488610 Ry
     Harris-Foulkes estimate   =    -951.85573990 Ry
     estimated scf accuracy    <       0.05850161 Ry

     total magnetization       =    -0.00 Bohr mag/cell
     absolute magnetization    =     0.42 Bohr mag/cell

     iteration # 14     ecut=    70.00 Ry     beta= 0.70
     Davidson diagonalization with overlap
     ethr =  2.71E-05,  avg # of iterations =  3.0

     negative rho (up, down):  1.297E-03 2.389E-01

     total cpu time spent up to now is     1547.2 secs

     total energy              =    -951.85683819 Ry
     Harris-Foulkes estimate   =    -951.85776142 Ry
     estimated scf accuracy    <       0.03364421 Ry

     total magnetization       =    -0.00 Bohr mag/cell
     absolute magnetization    =     0.32 Bohr mag/cell

     iteration # 15     ecut=    70.00 Ry     beta= 0.70
     Davidson diagonalization with overlap
     ethr =  1.56E-05,  avg # of iterations =  2.5

     negative rho (up, down):  3.552E-03 1.787E-01

     total cpu time spent up to now is     1642.6 secs

     total energy              =    -951.85675776 Ry
     Harris-Foulkes estimate   =    -951.85830083 Ry
     estimated scf accuracy    <       0.04273455 Ry

     total magnetization       =    -0.00 Bohr mag/cell
     absolute magnetization    =     0.26 Bohr mag/cell

     iteration # 16     ecut=    70.00 Ry     beta= 0.70
     Davidson diagonalization with overlap
     ethr =  1.56E-05,  avg # of iterations =  3.0

     negative rho (up, down):  1.283E-03 1.278E-01

     total cpu time spent up to now is     1740.8 secs

     total energy              =    -951.85861624 Ry
     Harris-Foulkes estimate   =    -951.85769249 Ry
     estimated scf accuracy    <       0.00401882 Ry

     total magnetization       =     0.00 Bohr mag/cell
     absolute magnetization    =     0.14 Bohr mag/cell

     iteration # 17     ecut=    70.00 Ry     beta= 0.70
     Davidson diagonalization with overlap
     ethr =  1.86E-06,  avg # of iterations =  3.5

     negative rho (up, down):  1.201E-03 1.441E-01

     total cpu time spent up to now is     1840.4 secs

     total energy              =    -951.85822447 Ry
     Harris-Foulkes estimate   =    -951.85871593 Ry
     estimated scf accuracy    <       0.01415563 Ry

     total magnetization       =     0.00 Bohr mag/cell
     absolute magnetization    =     0.22 Bohr mag/cell

     iteration # 18     ecut=    70.00 Ry     beta= 0.70
     Davidson diagonalization with overlap
     ethr =  1.86E-06,  avg # of iterations =  7.0

     negative rho (up, down):  1.170E-03 7.748E-02

     total cpu time spent up to now is     1940.8 secs

     total energy              =    -951.85862745 Ry
     Harris-Foulkes estimate   =    -951.85845484 Ry
     estimated scf accuracy    <       0.00067068 Ry

     total magnetization       =    -0.00 Bohr mag/cell
     absolute magnetization    =     0.07 Bohr mag/cell

     iteration # 19     ecut=    70.00 Ry     beta= 0.70
     Davidson diagonalization with overlap
     ethr =  3.10E-07,  avg # of iterations =  2.5

     negative rho (up, down):  1.178E-03 3.414E-02

     total cpu time spent up to now is     2038.5 secs

     total energy              =    -951.85876673 Ry
     Harris-Foulkes estimate   =    -951.85870893 Ry
     estimated scf accuracy    <       0.00024978 Ry

     total magnetization       =    -0.00 Bohr mag/cell
     absolute magnetization    =     0.05 Bohr mag/cell

     iteration # 20     ecut=    70.00 Ry     beta= 0.70
     Davidson diagonalization with overlap
     ethr =  1.16E-07,  avg # of iterations =  2.5

     negative rho (up, down):  1.176E-03 7.394E-03

     total cpu time spent up to now is     2136.0 secs

     total energy              =    -951.85879672 Ry
     Harris-Foulkes estimate   =    -951.85878939 Ry
     estimated scf accuracy    <       0.00003874 Ry

     total magnetization       =    -0.00 Bohr mag/cell
     absolute magnetization    =     0.03 Bohr mag/cell

     iteration # 21     ecut=    70.00 Ry     beta= 0.70
     Davidson diagonalization with overlap
     ethr =  1.79E-08,  avg # of iterations =  3.0

     negative rho (up, down):  1.178E-03 2.714E-03

     total cpu time spent up to now is     2237.9 secs

     total energy              =    -951.85880289 Ry
     Harris-Foulkes estimate   =    -951.85880248 Ry
     estimated scf accuracy    <       0.00002006 Ry

     total magnetization       =     0.00 Bohr mag/cell
     absolute magnetization    =     0.02 Bohr mag/cell

     iteration # 22     ecut=    70.00 Ry     beta= 0.70
     Davidson diagonalization with overlap
     ethr =  9.29E-09,  avg # of iterations =  2.0

     negative rho (up, down):  1.178E-03 8.280E-03

     total cpu time spent up to now is     2334.7 secs

     total energy              =    -951.85880384 Ry
     Harris-Foulkes estimate   =    -951.85880439 Ry
     estimated scf accuracy    <       0.00002984 Ry

     total magnetization       =    -0.00 Bohr mag/cell
     absolute magnetization    =     0.03 Bohr mag/cell

     iteration # 23     ecut=    70.00 Ry     beta= 0.70
     Davidson diagonalization with overlap
     ethr =  9.29E-09,  avg # of iterations =  1.0

     negative rho (up, down):  1.178E-03 1.107E-02

     total cpu time spent up to now is     2428.2 secs

     total energy              =    -951.85880340 Ry
     Harris-Foulkes estimate   =    -951.85880422 Ry
     estimated scf accuracy    <       0.00003036 Ry

     total magnetization       =     0.00 Bohr mag/cell
     absolute magnetization    =     0.02 Bohr mag/cell

     iteration # 24     ecut=    70.00 Ry     beta= 0.70
     Davidson diagonalization with overlap
     ethr =  9.29E-09,  avg # of iterations =  2.0

     negative rho (up, down):  1.179E-03 1.710E-02

     total cpu time spent up to now is     2524.1 secs

     total energy              =    -951.85880180 Ry
     Harris-Foulkes estimate   =    -951.85880410 Ry
     estimated scf accuracy    <       0.00007684 Ry

     total magnetization       =     0.00 Bohr mag/cell
     absolute magnetization    =     0.03 Bohr mag/cell

     iteration # 25     ecut=    70.00 Ry     beta= 0.70
     Davidson diagonalization with overlap
     ethr =  9.29E-09,  avg # of iterations =  1.0

     negative rho (up, down):  1.181E-03 1.824E-02

     total cpu time spent up to now is     2619.3 secs

     total energy              =    -951.85880127 Ry
     Harris-Foulkes estimate   =    -951.85880183 Ry
     estimated scf accuracy    <       0.00006969 Ry

     total magnetization       =     0.00 Bohr mag/cell
     absolute magnetization    =     0.03 Bohr mag/cell

     iteration # 26     ecut=    70.00 Ry     beta= 0.70
     Davidson diagonalization with overlap
     ethr =  9.29E-09,  avg # of iterations =  1.0

     negative rho (up, down):  1.186E-03 1.798E-02

     total cpu time spent up to now is     2712.9 secs

     total energy              =    -951.85879887 Ry
     Harris-Foulkes estimate   =    -951.85880156 Ry
     estimated scf accuracy    <       0.00006745 Ry

     total magnetization       =    -0.00 Bohr mag/cell
     absolute magnetization    =     0.03 Bohr mag/cell

     iteration # 27     ecut=    70.00 Ry     beta= 0.70
     Davidson diagonalization with overlap
     ethr =  9.29E-09,  avg # of iterations =  2.0

     negative rho (up, down):  1.182E-03 6.173E-03

     total cpu time spent up to now is     2810.2 secs

     total energy              =    -951.85880499 Ry
     Harris-Foulkes estimate   =    -951.85880048 Ry
     estimated scf accuracy    <       0.00000687 Ry

     total magnetization       =     0.00 Bohr mag/cell
     absolute magnetization    =     0.01 Bohr mag/cell

     iteration # 28     ecut=    70.00 Ry     beta= 0.70
     Davidson diagonalization with overlap
     ethr =  3.18E-09,  avg # of iterations =  2.0

     negative rho (up, down):  1.182E-03 9.309E-03

     total cpu time spent up to now is     2906.4 secs

     total energy              =    -951.85880349 Ry
     Harris-Foulkes estimate   =    -951.85880528 Ry
     estimated scf accuracy    <       0.00003390 Ry

     total magnetization       =     0.00 Bohr mag/cell
     absolute magnetization    =     0.02 Bohr mag/cell

     iteration # 29     ecut=    70.00 Ry     beta= 0.70
     Davidson diagonalization with overlap
     ethr =  3.18E-09,  avg # of iterations =  2.0

     negative rho (up, down):  1.181E-03 4.449E-03

     total cpu time spent up to now is     3005.0 secs

     total energy              =    -951.85880487 Ry
     Harris-Foulkes estimate   =    -951.85880401 Ry
     estimated scf accuracy    <       0.00000271 Ry

     total magnetization       =     0.00 Bohr mag/cell
     absolute magnetization    =     0.01 Bohr mag/cell

     iteration # 30     ecut=    70.00 Ry     beta= 0.70
     Davidson diagonalization with overlap
     ethr =  1.25E-09,  avg # of iterations =  1.5

     negative rho (up, down):  1.177E-03 9.602E-06

     Magnetic moment per site:
     atom:    1    charge:    0.2146    magn:    0.0000    constr:    0.0000
     atom:    2    charge:    0.2162    magn:   -0.0000    constr:    0.0000
     atom:    3    charge:    1.7155    magn:   -0.0001    constr:    0.0000
     atom:    4    charge:    1.7152    magn:    0.0001    constr:    0.0000
     atom:    5    charge:    1.7168    magn:   -0.0001    constr:    0.0000
     atom:    6    charge:    1.7146    magn:    0.0001    constr:    0.0000
     atom:    7    charge:    1.7168    magn:   -0.0001    constr:    0.0000
     atom:    8    charge:    1.7152    magn:    0.0001    constr:    0.0000
     atom:    9    charge:    1.7155    magn:   -0.0001    constr:    0.0000
     atom:   10    charge:    1.7176    magn:    0.0001    constr:    0.0000
     atom:   11    charge:    1.7156    magn:   -0.0001    constr:    0.0000
     atom:   12    charge:    1.7176    magn:    0.0001    constr:    0.0000
     atom:   13    charge:    1.7156    magn:   -0.0001    constr:    0.0000
     atom:   14    charge:    1.7175    magn:    0.0001    constr:    0.0000
     atom:   15    charge:    1.7117    magn:   -0.0001    constr:    0.0000
     atom:   16    charge:    1.7112    magn:    0.0001    constr:    0.0000
     atom:   17    charge:    1.7205    magn:   -0.0001    constr:    0.0000
     atom:   18    charge:    1.7112    magn:    0.0001    constr:    0.0000
     atom:   19    charge:    1.7117    magn:   -0.0001    constr:    0.0000
     atom:   20    charge:    1.7175    magn:    0.0001    constr:    0.0000
     atom:   21    charge:    1.7156    magn:   -0.0001    constr:    0.0000
     atom:   22    charge:    1.7176    magn:    0.0001    constr:    0.0000
     atom:   23    charge:    1.7155    magn:   -0.0001    constr:    0.0000
     atom:   24    charge:    1.7152    magn:    0.0001    constr:    0.0000
     atom:   25    charge:    1.7117    magn:   -0.0001    constr:    0.0000
     atom:   26    charge:    1.7112    magn:    0.0001    constr:    0.0000
     atom:   27    charge:    1.8203    magn:   -0.0001    constr:    0.0000
     atom:   28    charge:   13.4080    magn:    0.0001    constr:    0.0000
     atom:   29    charge:    1.8203    magn:   -0.0001    constr:    0.0000
     atom:   30    charge:    1.7112    magn:    0.0001    constr:    0.0000
     atom:   31    charge:    1.7117    magn:   -0.0001    constr:    0.0000
     atom:   32    charge:    1.7152    magn:    0.0001    constr:    0.0000
     atom:   33    charge:    1.7168    magn:   -0.0001    constr:    0.0000
     atom:   34    charge:    1.7154    magn:    0.0001    constr:    0.0000
     atom:   35    charge:    1.7168    magn:   -0.0001    constr:    0.0000
     atom:   36    charge:    1.7146    magn:    0.0001    constr:    0.0000
     atom:   37    charge:    1.7206    magn:   -0.0001    constr:    0.0000
     atom:   38    charge:    1.7112    magn:    0.0001    constr:    0.0000
     atom:   39    charge:    1.8203    magn:   -0.0001    constr:    0.0000
     atom:   40    charge:    1.7112    magn:    0.0001    constr:    0.0000
     atom:   41    charge:    1.7205    magn:   -0.0001    constr:    0.0000
     atom:   42    charge:    1.7146    magn:    0.0001    constr:    0.0000
     atom:   43    charge:    1.7168    magn:   -0.0001    constr:    0.0000
     atom:   44    charge:    1.7153    magn:    0.0001    constr:    0.0000
     atom:   45    charge:    1.7213    magn:   -0.0001    constr:    0.0000
     atom:   46    charge:    1.7154    magn:    0.0001    constr:    0.0000
     atom:   47    charge:    1.7168    magn:   -0.0001    constr:    0.0000
     atom:   48    charge:    1.7152    magn:    0.0001    constr:    0.0000
     atom:   49    charge:    1.7117    magn:   -0.0001    constr:    0.0000
     atom:   50    charge:    1.7175    magn:    0.0001    constr:    0.0000
     atom:   51    charge:    1.7117    magn:   -0.0001    constr:    0.0000
     atom:   52    charge:    1.7152    magn:    0.0001    constr:    0.0000

     total cpu time spent up to now is     3099.9 secs

     End of self-consistent calculation

 ------ SPIN UP ------------


          k = 0.0000 0.0000 0.0000 ( 87777 PWs)   bands (ev):

  -107.9616 -69.1246 -69.1245 -67.0656 -19.8385 -19.0189 -19.0189 -18.8988
   -18.8988 -18.8136 -18.7517 -17.1743 -17.1743 -17.1392 -17.0913 -17.0913
   -16.7658 -16.3235 -16.3235 -16.1771 -16.1771 -16.1624 -15.6873 -14.3246
   -14.3246 -14.1610 -14.0265 -14.0265 -13.5270 -13.1401 -13.1401 -13.0876
   -12.9129 -12.9129 -12.5166 -12.0897 -12.0897 -11.7232 -11.5805 -11.5805
   -10.9538 -10.4510 -10.4509  -9.5891  -9.3770  -9.3770  -9.2365  -9.2218
    -9.2218  -9.2069  -8.9652  -8.9652  -8.6053  -8.6053  -8.4739  -8.0513
    -7.9129  -7.9007  -7.9007  -7.6801  -7.5536  -7.5536  -7.4607  -7.4607
    -7.4079  -6.8573  -6.8310  -6.8309  -6.7570  -6.6309  -6.6309  -6.5657
    -6.5603  -6.5603  -6.5370  -6.4866  -6.4484  -6.4484  -6.3014  -6.3013
    -6.2055  -5.5582  -5.5582  -5.0419  -4.9599  -4.8538  -4.8538  -4.7676
    -4.7268  -4.7267  -4.4112  -4.4112  -4.4077  -3.8470  -3.8470  -3.7735
    -3.7700  -3.7700  -3.5230  -3.4366  -3.4366  -3.1696  -1.9019  -1.8156
    -1.8156  -1.6067  -1.6066  -1.1295   0.0635   0.0636   0.8939   0.9522
     0.9522   1.1963   1.1964   1.5398   2.4907   2.7912   2.7912   2.8449
     3.0188   3.0188   3.4135   3.6308   3.6312   3.7398   3.7402   3.7623
     3.9143   4.2267

     occupation numbers 
     1.0000   1.0000   1.0000   1.0000   1.0000   1.0000   1.0000   1.0000
     1.0000   1.0000   1.0000   1.0000   1.0000   1.0000   1.0000   1.0000
     1.0000   1.0000   1.0000   1.0000   1.0000   1.0000   1.0000   1.0000
     1.0000   1.0000   1.0000   1.0000   1.0000   1.0000   1.0000   1.0000
     1.0000   1.0000   1.0000   1.0000   1.0000   1.0000   1.0000   1.0000
     1.0000   1.0000   1.0000   1.0000   1.0000   1.0000   1.0000   1.0000
     1.0000   1.0000   1.0000   1.0000   1.0000   1.0000   1.0000   1.0000
     1.0000   1.0000   1.0000   1.0000   1.0000   1.0000   1.0000   1.0000
     1.0000   1.0000   1.0000   1.0000   1.0000   1.0000   1.0000   1.0000
     1.0000   1.0000   1.0000   1.0000   1.0000   1.0000   1.0000   1.0000
     1.0000   1.0000   1.0000   1.0000   1.0000   1.0000   1.0000   1.0000
     1.0000   1.0000   1.0000   1.0000   1.0000   1.0000   1.0000   1.0000
     1.0000   1.0000   1.0000   1.0000   1.0000   1.0000   1.0000   1.0000
     1.0000   1.0000   1.0000   1.0000   0.0000   0.0000   0.0000   0.0000
     0.0000   0.0000   0.0000   0.0000   0.0000   0.0000   0.0000   0.0000
     0.0000   0.0000   0.0000   0.0000   0.0000   0.0000   0.0000   0.0000
     0.0000   0.0000

 ------ SPIN DOWN ----------


          k = 0.0000 0.0000 0.0000 ( 87777 PWs)   bands (ev):

  -107.9611 -69.1240 -69.1240 -67.0652 -19.8385 -19.0189 -19.0189 -18.8988
   -18.8988 -18.8136 -18.7517 -17.1743 -17.1743 -17.1392 -17.0913 -17.0913
   -16.7658 -16.3235 -16.3235 -16.1771 -16.1771 -16.1624 -15.6873 -14.3246
   -14.3246 -14.1610 -14.0265 -14.0265 -13.5273 -13.1401 -13.1401 -13.0877
   -12.9130 -12.9130 -12.5165 -12.0898 -12.0897 -11.7231 -11.5805 -11.5805
   -10.9539 -10.4509 -10.4509  -9.5891  -9.3770  -9.3770  -9.2365  -9.2218
    -9.2218  -9.2069  -8.9652  -8.9652  -8.6053  -8.6053  -8.4740  -8.0513
    -7.9129  -7.9007  -7.9007  -7.6801  -7.5536  -7.5536  -7.4607  -7.4606
    -7.4079  -6.8573  -6.8310  -6.8310  -6.7570  -6.6309  -6.6309  -6.5657
    -6.5603  -6.5603  -6.5370  -6.4866  -6.4484  -6.4484  -6.3013  -6.3013
    -6.2055  -5.5582  -5.5582  -5.0419  -4.9599  -4.8538  -4.8538  -4.7676
    -4.7268  -4.7267  -4.4112  -4.4111  -4.4077  -3.8470  -3.8470  -3.7735
    -3.7700  -3.7700  -3.5230  -3.4365  -3.4365  -3.1697  -1.9019  -1.8155
    -1.8155  -1.6065  -1.6064  -1.1301   0.0634   0.0635   0.8937   0.9522
     0.9522   1.1963   1.1963   1.5398   2.4908   2.7911   2.7911   2.8449
     3.0189   3.0189   3.4136   3.6309   3.6312   3.7401   3.7402   3.7626
     3.9145   4.2268

     occupation numbers 
     1.0000   1.0000   1.0000   1.0000   1.0000   1.0000   1.0000   1.0000
     1.0000   1.0000   1.0000   1.0000   1.0000   1.0000   1.0000   1.0000
     1.0000   1.0000   1.0000   1.0000   1.0000   1.0000   1.0000   1.0000
     1.0000   1.0000   1.0000   1.0000   1.0000   1.0000   1.0000   1.0000
     1.0000   1.0000   1.0000   1.0000   1.0000   1.0000   1.0000   1.0000
     1.0000   1.0000   1.0000   1.0000   1.0000   1.0000   1.0000   1.0000
     1.0000   1.0000   1.0000   1.0000   1.0000   1.0000   1.0000   1.0000
     1.0000   1.0000   1.0000   1.0000   1.0000   1.0000   1.0000   1.0000
     1.0000   1.0000   1.0000   1.0000   1.0000   1.0000   1.0000   1.0000
     1.0000   1.0000   1.0000   1.0000   1.0000   1.0000   1.0000   1.0000
     1.0000   1.0000   1.0000   1.0000   1.0000   1.0000   1.0000   1.0000
     1.0000   1.0000   1.0000   1.0000   1.0000   1.0000   1.0000   1.0000
     1.0000   1.0000   1.0000   1.0000   1.0000   1.0000   1.0000   1.0000
     1.0000   1.0000   1.0000   1.0000   0.0000   0.0000   0.0000   0.0000
     0.0000   0.0000   0.0000   0.0000   0.0000   0.0000   0.0000   0.0000
     0.0000   0.0000   0.0000   0.0000   0.0000   0.0000   0.0000   0.0000
     0.0000   0.0000

     the Fermi energy is    -1.0074 ev

!    total energy              =    -951.85880519 Ry
     Harris-Foulkes estimate   =    -951.85880497 Ry
     estimated scf accuracy    <       0.00000016 Ry

     The total energy is the sum of the following terms:

     one-electron contribution =   -2998.24653747 Ry
     hartree contribution      =    1541.68994946 Ry
     xc contribution           =    -265.78807719 Ry
     ewald contribution        =     770.48586001 Ry
     smearing contrib. (-TS)   =       0.00000000 Ry

     total magnetization       =    -0.00 Bohr mag/cell
     absolute magnetization    =     0.01 Bohr mag/cell

     convergence has been achieved in  30 iterations

     Writing output data file distance-2.0.save/

     init_run     :     75.57s CPU     76.81s WALL (       1 calls)
     electrons    :   2970.65s CPU   3022.12s WALL (       1 calls)

     Called by init_run:
     wfcinit      :     41.92s CPU     42.18s WALL (       1 calls)
     wfcinit:atom :      0.05s CPU      0.08s WALL (       2 calls)
     wfcinit:wfcr :     41.52s CPU     41.70s WALL (       2 calls)
     potinit      :     13.87s CPU     14.28s WALL (       1 calls)
     hinit0       :     11.26s CPU     11.29s WALL (       1 calls)

     Called by electrons:
     c_bands      :   1871.67s CPU   1881.10s WALL (      30 calls)
     sum_band     :    638.21s CPU    655.64s WALL (      30 calls)
     v_of_rho     :    225.30s CPU    235.27s WALL (      31 calls)
     v_h          :      2.36s CPU      2.43s WALL (      31 calls)
     v_xc         :    222.94s CPU    232.84s WALL (      31 calls)
     newd         :    229.28s CPU    244.42s WALL (      31 calls)
     mix_rho      :     13.63s CPU     13.85s WALL (      30 calls)

     Called by c_bands:
     init_us_2    :      5.48s CPU      5.52s WALL (     122 calls)
     cegterg      :   1857.63s CPU   1867.00s WALL (      60 calls)

     Called by sum_band:
     sum_band:bec :      0.05s CPU      0.05s WALL (      60 calls)
     addusdens    :    393.24s CPU    409.24s WALL (      30 calls)

     Called by *egterg:
     h_psi        :    981.95s CPU    988.26s WALL (     232 calls)
     s_psi        :    337.50s CPU    337.65s WALL (     232 calls)
     g_psi        :      1.02s CPU      1.02s WALL (     170 calls)
     cdiaghg      :     15.04s CPU     15.05s WALL (     230 calls)
     cegterg:over :    220.77s CPU    220.90s WALL (     170 calls)
     cegterg:upda :    133.09s CPU    133.89s WALL (     170 calls)
     cegterg:last :    102.62s CPU    102.65s WALL (      60 calls)

     Called by h_psi:
     h_psi:pot    :    980.90s CPU    985.88s WALL (     232 calls)
     h_psi:calbec :    331.52s CPU    331.67s WALL (     232 calls)
     vloc_psi     :    312.37s CPU    317.05s WALL (     232 calls)
     add_vuspsi   :    337.01s CPU    337.15s WALL (     232 calls)

     General routines
     calbec       :    478.96s CPU    479.17s WALL (     292 calls)
     fft          :    127.71s CPU    131.79s WALL (    2319 calls)
     ffts         :      2.25s CPU      2.32s WALL (     122 calls)
     fftw         :    332.72s CPU    337.82s WALL (   42880 calls)
     interpolate  :      5.32s CPU      5.43s WALL (      62 calls)

     Parallel routines
     fft_scatt_xy :     81.84s CPU     82.71s WALL (   45321 calls)
     fft_scatt_yz :    154.04s CPU    161.03s WALL (   45321 calls)

     PWSCF        :  50m47.51s CPU  51m40.59s WALL


   This run was terminated on:  10:19:48  20Dec2022            

=------------------------------------------------------------------------------=
   JOB DONE.
=------------------------------------------------------------------------------=
