
     Program PWSCF v.6.4.1 starts on 25May2022 at 21:44:32 

     This program is part of the open-source Quantum ESPRESSO suite
     for quantum simulation of materials; please cite
         "P. Giannozzi et al., J. Phys.:Condens. Matter 21 395502 (2009);
         "P. Giannozzi et al., J. Phys.:Condens. Matter 29 465901 (2017);
          URL http://www.quantum-espresso.org", 
     in publications or presentations arising from this work. More details at
     http://www.quantum-espresso.org/quote

     Parallel version (MPI), running on     6 processors

     MPI processes distributed on     1 nodes
     R & G space division:  proc/nbgrp/npool/nimage =       6
     Reading input from mn-10.in

     Current dimensions of program PWSCF are:
     Max number of different atomic species (ntypx) = 10
     Max number of k-points (npk) =  40000
     Max angular momentum in pseudopotentials (lmaxx) =  3
               file Mn.pbe-spn-rrkjus_psl.0.3.1.UPF: wavefunction(s)  3D renormalized
               file Mn.pbe-spn-rrkjus_psl.0.3.1.UPF: wavefunction(s)  3D renormalized

     Subspace diagonalization in iterative solution of the eigenvalue problem:
     a serial algorithm will be used

     Message from routine setup:
     DEPRECATED: symmetry with ibrav=0, use correct ibrav instead

     Parallelization info
     --------------------
     sticks:   dense  smooth     PW     G-vecs:    dense   smooth      PW
     Min        2255     902    242               197465    49988    6974
     Max        2256     903    243               197468    49991    6977
     Sum       13533    5417   1457              1184799   299939   41851



     bravais-lattice index     =            0
     lattice parameter (alat)  =      16.8375  a.u.
     unit-cell volume          =    4773.4208 (a.u.)^3
     number of atoms/cell      =            2
     number of atomic types    =            2
     number of electrons       =        30.00
     number of Kohn-Sham states=           19
     kinetic-energy cutoff     =      60.0000  Ry
     charge density cutoff     =     600.0000  Ry
     convergence threshold     =      1.0E-06
     mixing beta               =       0.7000
     number of iterations used =            8  plain     mixing
     Exchange-correlation      = PBE ( 1  4  3  4 0 0)

     celldm(1)=  16.837460  celldm(2)=   0.000000  celldm(3)=   0.000000
     celldm(4)=   0.000000  celldm(5)=   0.000000  celldm(6)=   0.000000

     crystal axes: (cart. coord. in units of alat)
               a(1) = (   1.000000   0.000000   0.000000 )  
               a(2) = (   0.000000   1.000000   0.000000 )  
               a(3) = (   0.000000   0.000000   1.000000 )  

     reciprocal axes: (cart. coord. in units 2 pi/alat)
               b(1) = (  1.000000  0.000000  0.000000 )  
               b(2) = (  0.000000  1.000000  0.000000 )  
               b(3) = (  0.000000  0.000000  1.000000 )  


     PseudoPot. # 1 for Mn read from file:
     /home/cristian/Escritorio/Proyecto_Grafeno/pseudopotenciales/Mn.pbe-spn-rrkjus_psl.0.3.1.UPF
     MD5 check sum: e1cac159bdd2ba70c18e85765a5d4279
     Pseudo is Ultrasoft + core correction, Zval = 15.0
     Generated using "atomic" code by A. Dal Corso v.6.2.2
     Using radial grid of 1187 points,  6 beta functions with: 
                l(1) =   0
                l(2) =   0
                l(3) =   1
                l(4) =   1
                l(5) =   2
                l(6) =   2
     Q(r) pseudized with 0 coefficients 


     PseudoPot. # 2 for Mn read from file:
     /home/cristian/Escritorio/Proyecto_Grafeno/pseudopotenciales/Mn.pbe-spn-rrkjus_psl.0.3.1.UPF
     MD5 check sum: e1cac159bdd2ba70c18e85765a5d4279
     Pseudo is Ultrasoft + core correction, Zval = 15.0
     Generated using "atomic" code by A. Dal Corso v.6.2.2
     Using radial grid of 1187 points,  6 beta functions with: 
                l(1) =   0
                l(2) =   0
                l(3) =   1
                l(4) =   1
                l(5) =   2
                l(6) =   2
     Q(r) pseudized with 0 coefficients 


     atomic species   valence    mass     pseudopotential
        Mn1           15.00    54.93804     Mn( 1.00)
        Mn2           15.00    54.93804     Mn( 1.00)

     Starting magnetic structure 
     atomic species   magnetization
        Mn1          0.100
        Mn2         -0.100

     48 Sym. Ops., with inversion, found



   Cartesian axes

     site n.     atom                  positions (alat units)
         1           Mn1 tau(   1) = (   0.0000000   0.0000000   0.0000000  )
         2           Mn2 tau(   2) = (   0.5000000   0.5000000   0.5000000  )

     number of k points=    20  Methfessel-Paxton smearing, width (Ry)=  0.0300
                       cart. coord. in units 2pi/alat
        k(    1) = (   0.0625000   0.0625000   0.0625000), wk =   0.0156250
        k(    2) = (   0.0625000   0.0625000   0.1875000), wk =   0.0468750
        k(    3) = (   0.0625000   0.0625000   0.3125000), wk =   0.0468750
        k(    4) = (   0.0625000   0.0625000   0.4375000), wk =   0.0468750
        k(    5) = (   0.0625000   0.1875000   0.1875000), wk =   0.0468750
        k(    6) = (   0.0625000   0.1875000   0.3125000), wk =   0.0937500
        k(    7) = (   0.0625000   0.1875000   0.4375000), wk =   0.0937500
        k(    8) = (   0.0625000   0.3125000   0.3125000), wk =   0.0468750
        k(    9) = (   0.0625000   0.3125000   0.4375000), wk =   0.0937500
        k(   10) = (   0.0625000   0.4375000   0.4375000), wk =   0.0468750
        k(   11) = (   0.1875000   0.1875000   0.1875000), wk =   0.0156250
        k(   12) = (   0.1875000   0.1875000   0.3125000), wk =   0.0468750
        k(   13) = (   0.1875000   0.1875000   0.4375000), wk =   0.0468750
        k(   14) = (   0.1875000   0.3125000   0.3125000), wk =   0.0468750
        k(   15) = (   0.1875000   0.3125000   0.4375000), wk =   0.0937500
        k(   16) = (   0.1875000   0.4375000   0.4375000), wk =   0.0468750
        k(   17) = (   0.3125000   0.3125000   0.3125000), wk =   0.0156250
        k(   18) = (   0.3125000   0.3125000   0.4375000), wk =   0.0468750
        k(   19) = (   0.3125000   0.4375000   0.4375000), wk =   0.0468750
        k(   20) = (   0.4375000   0.4375000   0.4375000), wk =   0.0156250

     Dense  grid:  1184799 G-vectors     FFT dimensions: ( 135, 135, 135)

     Smooth grid:   299939 G-vectors     FFT dimensions: (  90,  90,  90)

     Estimated max dynamical RAM per process >     846.67 MB

     Estimated total dynamical RAM >       4.96 GB
     Generating pointlists ...
     new r_m :   0.3572 (alat units)  6.0149 (a.u.) for type    1
     new r_m :   0.3572 (alat units)  6.0149 (a.u.) for type    2

     Check: negative core charge=   -0.000001

     Initial potential from superposition of free atoms

     starting charge   29.99900, renormalised to   30.00000
     Starting wfcs are   20 randomized atomic wfcs

     total cpu time spent up to now is       15.5 secs

     Self-consistent Calculation

     iteration #  1     ecut=    60.00 Ry     beta= 0.70
     Davidson diagonalization with overlap
     ethr =  1.00E-02,  avg # of iterations =  1.0

     negative rho (up, down):  1.378E-07 3.526E-03

     total cpu time spent up to now is       47.4 secs

     total energy              =    -424.94325737 Ry
     Harris-Foulkes estimate   =    -427.04355835 Ry
     estimated scf accuracy    <       2.74255727 Ry

     total magnetization       =    -0.00 Bohr mag/cell
     absolute magnetization    =     5.98 Bohr mag/cell

     iteration #  2     ecut=    60.00 Ry     beta= 0.70
     Davidson diagonalization with overlap
     ethr =  9.14E-03,  avg # of iterations = 10.8

     total cpu time spent up to now is      133.3 secs

     total energy              =    -423.44660348 Ry
     Harris-Foulkes estimate   =    -433.86961912 Ry
     estimated scf accuracy    <      47.01178184 Ry

     total magnetization       =     0.03 Bohr mag/cell
     absolute magnetization    =     0.51 Bohr mag/cell

     iteration #  3     ecut=    60.00 Ry     beta= 0.70
     Davidson diagonalization with overlap
     ethr =  9.14E-03,  avg # of iterations =  8.3

     total cpu time spent up to now is      186.4 secs

     total energy              =    -425.28470196 Ry
     Harris-Foulkes estimate   =    -425.90775019 Ry
     estimated scf accuracy    <       5.06058116 Ry

     total magnetization       =     0.30 Bohr mag/cell
     absolute magnetization    =     5.45 Bohr mag/cell

     iteration #  4     ecut=    60.00 Ry     beta= 0.70
     Davidson diagonalization with overlap
     ethr =  9.14E-03,  avg # of iterations =  6.3

     total cpu time spent up to now is      226.3 secs

     total energy              =    -426.52822964 Ry
     Harris-Foulkes estimate   =    -426.56407510 Ry
     estimated scf accuracy    <       0.36310155 Ry

     total magnetization       =    -2.20 Bohr mag/cell
     absolute magnetization    =     5.23 Bohr mag/cell

     iteration #  5     ecut=    60.00 Ry     beta= 0.70
     Davidson diagonalization with overlap
     ethr =  1.21E-03,  avg # of iterations =  6.5

     total cpu time spent up to now is      269.8 secs

     total energy              =    -426.92983225 Ry
     Harris-Foulkes estimate   =    -426.92835211 Ry
     estimated scf accuracy    <       0.60495945 Ry

     total magnetization       =    -0.46 Bohr mag/cell
     absolute magnetization    =     9.59 Bohr mag/cell

     iteration #  6     ecut=    60.00 Ry     beta= 0.70
     Davidson diagonalization with overlap
     ethr =  1.21E-03,  avg # of iterations =  2.1

     total cpu time spent up to now is      304.0 secs

     total energy              =    -426.91329089 Ry
     Harris-Foulkes estimate   =    -426.98696319 Ry
     estimated scf accuracy    <       4.68179677 Ry

     total magnetization       =    -2.34 Bohr mag/cell
     absolute magnetization    =     7.44 Bohr mag/cell

     iteration #  7     ecut=    60.00 Ry     beta= 0.70
     Davidson diagonalization with overlap
     ethr =  1.21E-03,  avg # of iterations =  1.1

     total cpu time spent up to now is      337.1 secs

     total energy              =    -426.84944582 Ry
     Harris-Foulkes estimate   =    -427.01707400 Ry
     estimated scf accuracy    <       2.95586553 Ry

     total magnetization       =     1.34 Bohr mag/cell
     absolute magnetization    =     5.78 Bohr mag/cell

     iteration #  8     ecut=    60.00 Ry     beta= 0.70
     Davidson diagonalization with overlap
     ethr =  1.21E-03,  avg # of iterations =  1.1

     total cpu time spent up to now is      369.6 secs

     total energy              =    -427.01424229 Ry
     Harris-Foulkes estimate   =    -426.85447626 Ry
     estimated scf accuracy    <       2.48108188 Ry

     total magnetization       =     0.99 Bohr mag/cell
     absolute magnetization    =     5.85 Bohr mag/cell

     iteration #  9     ecut=    60.00 Ry     beta= 0.70
     Davidson diagonalization with overlap
     ethr =  1.21E-03,  avg # of iterations =  1.0

     total cpu time spent up to now is      400.9 secs

     total energy              =    -426.82847083 Ry
     Harris-Foulkes estimate   =    -427.01623964 Ry
     estimated scf accuracy    <       3.52496010 Ry

     total magnetization       =     2.10 Bohr mag/cell
     absolute magnetization    =     5.71 Bohr mag/cell

     iteration # 10     ecut=    60.00 Ry     beta= 0.70
     Davidson diagonalization with overlap
     ethr =  1.21E-03,  avg # of iterations =  1.7

     total cpu time spent up to now is      433.2 secs

     total energy              =    -427.07470178 Ry
     Harris-Foulkes estimate   =    -427.08559085 Ry
     estimated scf accuracy    <       1.69144819 Ry

     total magnetization       =     2.17 Bohr mag/cell
     absolute magnetization    =     9.88 Bohr mag/cell

     iteration # 11     ecut=    60.00 Ry     beta= 0.70
     Davidson diagonalization with overlap
     ethr =  1.21E-03,  avg # of iterations =  1.0

     total cpu time spent up to now is      464.0 secs

     total energy              =    -427.08628267 Ry
     Harris-Foulkes estimate   =    -427.07711073 Ry
     estimated scf accuracy    <       1.39430811 Ry

     total magnetization       =     2.12 Bohr mag/cell
     absolute magnetization    =     9.89 Bohr mag/cell

     iteration # 12     ecut=    60.00 Ry     beta= 0.70
     Davidson diagonalization with overlap
     ethr =  1.21E-03,  avg # of iterations =  1.0

     total cpu time spent up to now is      495.4 secs

     total energy              =    -427.12298844 Ry
     Harris-Foulkes estimate   =    -427.08943862 Ry
     estimated scf accuracy    <       1.77928466 Ry

     total magnetization       =     2.16 Bohr mag/cell
     absolute magnetization    =     9.89 Bohr mag/cell

     iteration # 13     ecut=    60.00 Ry     beta= 0.70
     Davidson diagonalization with overlap
     ethr =  1.21E-03,  avg # of iterations =  1.0

     total cpu time spent up to now is      527.5 secs

     total energy              =    -426.97126167 Ry
     Harris-Foulkes estimate   =    -427.13005289 Ry
     estimated scf accuracy    <       2.38354355 Ry

     total magnetization       =     2.32 Bohr mag/cell
     absolute magnetization    =     9.90 Bohr mag/cell

     iteration # 14     ecut=    60.00 Ry     beta= 0.70
     Davidson diagonalization with overlap
     ethr =  1.21E-03,  avg # of iterations =  1.6

     total cpu time spent up to now is      560.6 secs

     total energy              =    -427.07535282 Ry
     Harris-Foulkes estimate   =    -427.05216421 Ry
     estimated scf accuracy    <       0.48418000 Ry

     total magnetization       =     1.56 Bohr mag/cell
     absolute magnetization    =    10.00 Bohr mag/cell

     iteration # 15     ecut=    60.00 Ry     beta= 0.70
     Davidson diagonalization with overlap
     ethr =  1.21E-03,  avg # of iterations =  1.0

     total cpu time spent up to now is      592.9 secs

     total energy              =    -427.11815019 Ry
     Harris-Foulkes estimate   =    -427.09694736 Ry
     estimated scf accuracy    <       0.07566688 Ry

     total magnetization       =     0.16 Bohr mag/cell
     absolute magnetization    =    10.04 Bohr mag/cell

     iteration # 16     ecut=    60.00 Ry     beta= 0.70
     Davidson diagonalization with overlap
     ethr =  2.52E-04,  avg # of iterations =  2.8

     total cpu time spent up to now is      628.3 secs

     total energy              =    -427.14585026 Ry
     Harris-Foulkes estimate   =    -427.13372843 Ry
     estimated scf accuracy    <       0.11031503 Ry

     total magnetization       =     0.09 Bohr mag/cell
     absolute magnetization    =    10.14 Bohr mag/cell

     iteration # 17     ecut=    60.00 Ry     beta= 0.70
     Davidson diagonalization with overlap
     ethr =  2.52E-04,  avg # of iterations =  1.5

     total cpu time spent up to now is      661.6 secs

     total energy              =    -427.14059992 Ry
     Harris-Foulkes estimate   =    -427.14846399 Ry
     estimated scf accuracy    <       0.14830978 Ry

     total magnetization       =     0.17 Bohr mag/cell
     absolute magnetization    =    10.11 Bohr mag/cell

     iteration # 18     ecut=    60.00 Ry     beta= 0.70
     Davidson diagonalization with overlap
     ethr =  2.52E-04,  avg # of iterations =  2.0

     total cpu time spent up to now is      695.6 secs

     total energy              =    -427.02322686 Ry
     Harris-Foulkes estimate   =    -427.14800404 Ry
     estimated scf accuracy    <       0.19647492 Ry

     total magnetization       =     0.21 Bohr mag/cell
     absolute magnetization    =    10.09 Bohr mag/cell

     iteration # 19     ecut=    60.00 Ry     beta= 0.70
     Davidson diagonalization with overlap
     ethr =  2.52E-04,  avg # of iterations =  4.7

     total cpu time spent up to now is      738.2 secs

     total energy              =    -427.10084339 Ry
     Harris-Foulkes estimate   =    -427.06522030 Ry
     estimated scf accuracy    <       0.37208919 Ry

     total magnetization       =     1.21 Bohr mag/cell
     absolute magnetization    =    10.04 Bohr mag/cell

     iteration # 20     ecut=    60.00 Ry     beta= 0.70
     Davidson diagonalization with overlap
     ethr =  2.52E-04,  avg # of iterations =  1.3

     total cpu time spent up to now is      770.8 secs

     total energy              =    -427.11542651 Ry
     Harris-Foulkes estimate   =    -427.10340244 Ry
     estimated scf accuracy    <       0.21668406 Ry

     total magnetization       =     1.03 Bohr mag/cell
     absolute magnetization    =    10.07 Bohr mag/cell

     iteration # 21     ecut=    60.00 Ry     beta= 0.70
     Davidson diagonalization with overlap
     ethr =  2.52E-04,  avg # of iterations =  1.5

     total cpu time spent up to now is      803.3 secs

     total energy              =    -427.13535353 Ry
     Harris-Foulkes estimate   =    -427.12871335 Ry
     estimated scf accuracy    <       0.90540522 Ry

     total magnetization       =     1.90 Bohr mag/cell
     absolute magnetization    =    10.04 Bohr mag/cell

     iteration # 22     ecut=    60.00 Ry     beta= 0.70
     Davidson diagonalization with overlap
     ethr =  2.52E-04,  avg # of iterations =  1.0

     negative rho (up, down):  0.000E+00 2.439E-06

     total cpu time spent up to now is      836.0 secs

     total energy              =    -427.14860879 Ry
     Harris-Foulkes estimate   =    -427.13765285 Ry
     estimated scf accuracy    <       0.63234624 Ry

     total magnetization       =     1.64 Bohr mag/cell
     absolute magnetization    =    10.07 Bohr mag/cell

     iteration # 23     ecut=    60.00 Ry     beta= 0.70
     Davidson diagonalization with overlap
     ethr =  2.52E-04,  avg # of iterations =  1.0

     negative rho (up, down):  0.000E+00 3.414E-05

     total cpu time spent up to now is      868.2 secs

     total energy              =    -427.11518675 Ry
     Harris-Foulkes estimate   =    -427.15403477 Ry
     estimated scf accuracy    <       0.94928076 Ry

     total magnetization       =     1.98 Bohr mag/cell
     absolute magnetization    =    10.08 Bohr mag/cell

     iteration # 24     ecut=    60.00 Ry     beta= 0.70
     Davidson diagonalization with overlap
     ethr =  2.52E-04,  avg # of iterations =  1.2

     negative rho (up, down):  2.880E-03 1.883E-01

     total cpu time spent up to now is      899.8 secs

     total energy              =    -427.02316772 Ry
     Harris-Foulkes estimate   =    -427.12288696 Ry
     estimated scf accuracy    <       0.60333249 Ry

     total magnetization       =     1.57 Bohr mag/cell
     absolute magnetization    =    10.06 Bohr mag/cell

     iteration # 25     ecut=    60.00 Ry     beta= 0.70
     Davidson diagonalization with overlap
     ethr =  2.52E-04,  avg # of iterations =  3.4

     total cpu time spent up to now is      940.0 secs

     total energy              =    -426.87017237 Ry
     Harris-Foulkes estimate   =    -427.20670029 Ry
     estimated scf accuracy    <       3.15053395 Ry

     total magnetization       =    -2.15 Bohr mag/cell
     absolute magnetization    =     9.85 Bohr mag/cell

     iteration # 26     ecut=    60.00 Ry     beta= 0.70
     Davidson diagonalization with overlap
     ethr =  2.52E-04,  avg # of iterations =  3.4

     total cpu time spent up to now is      984.2 secs

     total energy              =    -427.11826742 Ry
     Harris-Foulkes estimate   =    -427.12517372 Ry
     estimated scf accuracy    <       0.07247633 Ry

     total magnetization       =     0.18 Bohr mag/cell
     absolute magnetization    =    10.13 Bohr mag/cell

     iteration # 27     ecut=    60.00 Ry     beta= 0.70
     Davidson diagonalization with overlap
     ethr =  2.42E-04,  avg # of iterations =  1.0

     total cpu time spent up to now is     1014.8 secs

     total energy              =    -427.11884690 Ry
     Harris-Foulkes estimate   =    -427.12084576 Ry
     estimated scf accuracy    <       0.04065510 Ry

     total magnetization       =     0.15 Bohr mag/cell
     absolute magnetization    =    10.14 Bohr mag/cell

     iteration # 28     ecut=    60.00 Ry     beta= 0.70
     Davidson diagonalization with overlap
     ethr =  1.36E-04,  avg # of iterations =  1.0

     total cpu time spent up to now is     1045.6 secs

     total energy              =    -427.11789181 Ry
     Harris-Foulkes estimate   =    -427.11974351 Ry
     estimated scf accuracy    <       0.03898047 Ry

     total magnetization       =     0.19 Bohr mag/cell
     absolute magnetization    =    10.14 Bohr mag/cell

     iteration # 29     ecut=    60.00 Ry     beta= 0.70
     Davidson diagonalization with overlap
     ethr =  1.30E-04,  avg # of iterations =  1.0

     total cpu time spent up to now is     1078.3 secs

     total energy              =    -427.11648413 Ry
     Harris-Foulkes estimate   =    -427.11859862 Ry
     estimated scf accuracy    <       0.03922462 Ry

     total magnetization       =     0.24 Bohr mag/cell
     absolute magnetization    =    10.14 Bohr mag/cell

     iteration # 30     ecut=    60.00 Ry     beta= 0.70
     Davidson diagonalization with overlap
     ethr =  1.30E-04,  avg # of iterations =  1.0

     total cpu time spent up to now is     1109.6 secs

     total energy              =    -427.11716481 Ry
     Harris-Foulkes estimate   =    -427.11733086 Ry
     estimated scf accuracy    <       0.03422407 Ry

     total magnetization       =     0.25 Bohr mag/cell
     absolute magnetization    =    10.14 Bohr mag/cell

     iteration # 31     ecut=    60.00 Ry     beta= 0.70
     Davidson diagonalization with overlap
     ethr =  1.14E-04,  avg # of iterations =  1.0

     total cpu time spent up to now is     1141.2 secs

     total energy              =    -427.11617855 Ry
     Harris-Foulkes estimate   =    -427.11727671 Ry
     estimated scf accuracy    <       0.03613791 Ry

     total magnetization       =     0.27 Bohr mag/cell
     absolute magnetization    =    10.14 Bohr mag/cell

     iteration # 32     ecut=    60.00 Ry     beta= 0.70
     Davidson diagonalization with overlap
     ethr =  1.14E-04,  avg # of iterations =  1.0

     total cpu time spent up to now is     1171.9 secs

     total energy              =    -427.11264652 Ry
     Harris-Foulkes estimate   =    -427.11635332 Ry
     estimated scf accuracy    <       0.02367047 Ry

     total magnetization       =     0.21 Bohr mag/cell
     absolute magnetization    =    10.15 Bohr mag/cell

     iteration # 33     ecut=    60.00 Ry     beta= 0.70
     Davidson diagonalization with overlap
     ethr =  7.89E-05,  avg # of iterations =  2.0

     total cpu time spent up to now is     1204.5 secs

     total energy              =    -427.11678873 Ry
     Harris-Foulkes estimate   =    -427.11539789 Ry
     estimated scf accuracy    <       0.01099484 Ry

     total magnetization       =    -0.17 Bohr mag/cell
     absolute magnetization    =    10.13 Bohr mag/cell

     iteration # 34     ecut=    60.00 Ry     beta= 0.70
     Davidson diagonalization with overlap
     ethr =  3.66E-05,  avg # of iterations =  1.0

     total cpu time spent up to now is     1235.9 secs

     total energy              =    -427.11500484 Ry
     Harris-Foulkes estimate   =    -427.11702275 Ry
     estimated scf accuracy    <       0.02937357 Ry

     total magnetization       =    -0.32 Bohr mag/cell
     absolute magnetization    =    10.13 Bohr mag/cell

     iteration # 35     ecut=    60.00 Ry     beta= 0.70
     Davidson diagonalization with overlap
     ethr =  3.66E-05,  avg # of iterations =  1.5

     total cpu time spent up to now is     1267.7 secs

     total energy              =    -427.11606992 Ry
     Harris-Foulkes estimate   =    -427.11611175 Ry
     estimated scf accuracy    <       0.00024006 Ry

     total magnetization       =    -0.04 Bohr mag/cell
     absolute magnetization    =    10.15 Bohr mag/cell

     iteration # 36     ecut=    60.00 Ry     beta= 0.70
     Davidson diagonalization with overlap
     ethr =  8.00E-07,  avg # of iterations =  4.2

     total cpu time spent up to now is     1301.7 secs

     total energy              =    -427.12047467 Ry
     Harris-Foulkes estimate   =    -427.12026881 Ry
     estimated scf accuracy    <       0.00740485 Ry

     total magnetization       =     0.15 Bohr mag/cell
     absolute magnetization    =    10.19 Bohr mag/cell

     iteration # 37     ecut=    60.00 Ry     beta= 0.70
     Davidson diagonalization with overlap
     ethr =  8.00E-07,  avg # of iterations =  1.5

     total cpu time spent up to now is     1333.6 secs

     total energy              =    -427.12153297 Ry
     Harris-Foulkes estimate   =    -427.12052496 Ry
     estimated scf accuracy    <       0.01385055 Ry

     total magnetization       =     0.21 Bohr mag/cell
     absolute magnetization    =    10.19 Bohr mag/cell

     iteration # 38     ecut=    60.00 Ry     beta= 0.70
     Davidson diagonalization with overlap
     ethr =  8.00E-07,  avg # of iterations =  4.1

     total cpu time spent up to now is     1372.4 secs

     total energy              =    -427.12383978 Ry
     Harris-Foulkes estimate   =    -427.12211725 Ry
     estimated scf accuracy    <       0.03370262 Ry

     total magnetization       =     0.33 Bohr mag/cell
     absolute magnetization    =    10.18 Bohr mag/cell

     iteration # 39     ecut=    60.00 Ry     beta= 0.70
     Davidson diagonalization with overlap
     ethr =  8.00E-07,  avg # of iterations =  3.9

     total cpu time spent up to now is     1414.9 secs

     total energy              =    -427.11990810 Ry
     Harris-Foulkes estimate   =    -427.12394669 Ry
     estimated scf accuracy    <       0.03272844 Ry

     total magnetization       =     0.34 Bohr mag/cell
     absolute magnetization    =    10.16 Bohr mag/cell

     iteration # 40     ecut=    60.00 Ry     beta= 0.70
     Davidson diagonalization with overlap
     ethr =  8.00E-07,  avg # of iterations =  4.5

     total cpu time spent up to now is     1459.6 secs

     total energy              =    -427.11967801 Ry
     Harris-Foulkes estimate   =    -427.12022935 Ry
     estimated scf accuracy    <       0.02209100 Ry

     total magnetization       =     0.28 Bohr mag/cell
     absolute magnetization    =    10.18 Bohr mag/cell

     iteration # 41     ecut=    60.00 Ry     beta= 0.70
     Davidson diagonalization with overlap
     ethr =  8.00E-07,  avg # of iterations =  2.0

     total cpu time spent up to now is     1492.3 secs

     total energy              =    -427.12140893 Ry
     Harris-Foulkes estimate   =    -427.11982152 Ry
     estimated scf accuracy    <       0.00889353 Ry

     total magnetization       =     0.17 Bohr mag/cell
     absolute magnetization    =    10.18 Bohr mag/cell

     iteration # 42     ecut=    60.00 Ry     beta= 0.70
     Davidson diagonalization with overlap
     ethr =  8.00E-07,  avg # of iterations =  4.0

     total cpu time spent up to now is     1532.0 secs

     total energy              =    -427.12490803 Ry
     Harris-Foulkes estimate   =    -427.12213422 Ry
     estimated scf accuracy    <       0.02804163 Ry

     total magnetization       =     0.29 Bohr mag/cell
     absolute magnetization    =    10.18 Bohr mag/cell

     iteration # 43     ecut=    60.00 Ry     beta= 0.70
     Davidson diagonalization with overlap
     ethr =  8.00E-07,  avg # of iterations =  4.0

     total cpu time spent up to now is     1574.3 secs

     total energy              =    -427.12404972 Ry
     Harris-Foulkes estimate   =    -427.12500734 Ry
     estimated scf accuracy    <       0.02237556 Ry

     total magnetization       =     0.21 Bohr mag/cell
     absolute magnetization    =    10.17 Bohr mag/cell

     iteration # 44     ecut=    60.00 Ry     beta= 0.70
     Davidson diagonalization with overlap
     ethr =  8.00E-07,  avg # of iterations =  2.3

     total cpu time spent up to now is     1608.1 secs

     total energy              =    -427.11046168 Ry
     Harris-Foulkes estimate   =    -427.12407080 Ry
     estimated scf accuracy    <       0.02583109 Ry

     total magnetization       =     0.21 Bohr mag/cell
     absolute magnetization    =    10.19 Bohr mag/cell

     iteration # 45     ecut=    60.00 Ry     beta= 0.70
     Davidson diagonalization with overlap
     ethr =  8.00E-07,  avg # of iterations =  4.7

     total cpu time spent up to now is     1661.5 secs

     total energy              =    -427.08176825 Ry
     Harris-Foulkes estimate   =    -427.13259270 Ry
     estimated scf accuracy    <       0.37047743 Ry

     total magnetization       =    -1.16 Bohr mag/cell
     absolute magnetization    =    10.09 Bohr mag/cell

     iteration # 46     ecut=    60.00 Ry     beta= 0.70
     Davidson diagonalization with overlap
     ethr =  8.00E-07,  avg # of iterations =  5.7

     total cpu time spent up to now is     1717.2 secs

     total energy              =    -427.12230055 Ry
     Harris-Foulkes estimate   =    -427.12501314 Ry
     estimated scf accuracy    <       0.02447366 Ry

     total magnetization       =     0.24 Bohr mag/cell
     absolute magnetization    =    10.17 Bohr mag/cell

     iteration # 47     ecut=    60.00 Ry     beta= 0.70
     Davidson diagonalization with overlap
     ethr =  8.00E-07,  avg # of iterations =  4.2

     total cpu time spent up to now is     1760.6 secs

     total energy              =    -427.11988493 Ry
     Harris-Foulkes estimate   =    -427.12224047 Ry
     estimated scf accuracy    <       0.02504930 Ry

     total magnetization       =     0.24 Bohr mag/cell
     absolute magnetization    =    10.20 Bohr mag/cell

     iteration # 48     ecut=    60.00 Ry     beta= 0.70
     Davidson diagonalization with overlap
     ethr =  8.00E-07,  avg # of iterations =  4.0

     total cpu time spent up to now is     1802.9 secs

     total energy              =    -427.11950503 Ry
     Harris-Foulkes estimate   =    -427.12046126 Ry
     estimated scf accuracy    <       0.00453412 Ry

     total magnetization       =     0.08 Bohr mag/cell
     absolute magnetization    =    10.20 Bohr mag/cell

     iteration # 49     ecut=    60.00 Ry     beta= 0.70
     Davidson diagonalization with overlap
     ethr =  8.00E-07,  avg # of iterations =  3.4

     total cpu time spent up to now is     1843.8 secs

     total energy              =    -427.12024817 Ry
     Harris-Foulkes estimate   =    -427.12034675 Ry
     estimated scf accuracy    <       0.01152230 Ry

     total magnetization       =    -0.18 Bohr mag/cell
     absolute magnetization    =    10.18 Bohr mag/cell

     iteration # 50     ecut=    60.00 Ry     beta= 0.70
     Davidson diagonalization with overlap
     ethr =  8.00E-07,  avg # of iterations =  2.5

     total cpu time spent up to now is     1875.8 secs

     total energy              =    -427.12012014 Ry
     Harris-Foulkes estimate   =    -427.12027613 Ry
     estimated scf accuracy    <       0.00977146 Ry

     total magnetization       =    -0.17 Bohr mag/cell
     absolute magnetization    =    10.18 Bohr mag/cell

     iteration # 51     ecut=    60.00 Ry     beta= 0.70
     Davidson diagonalization with overlap
     ethr =  8.00E-07,  avg # of iterations =  2.0

     total cpu time spent up to now is     1910.2 secs

     total energy              =    -427.12029742 Ry
     Harris-Foulkes estimate   =    -427.12020927 Ry
     estimated scf accuracy    <       0.00453484 Ry

     total magnetization       =    -0.09 Bohr mag/cell
     absolute magnetization    =    10.19 Bohr mag/cell

     iteration # 52     ecut=    60.00 Ry     beta= 0.70
     Davidson diagonalization with overlap
     ethr =  8.00E-07,  avg # of iterations =  1.0

     total cpu time spent up to now is     1939.8 secs

     total energy              =    -427.11980680 Ry
     Harris-Foulkes estimate   =    -427.12031239 Ry
     estimated scf accuracy    <       0.00751062 Ry

     total magnetization       =    -0.13 Bohr mag/cell
     absolute magnetization    =    10.19 Bohr mag/cell

     iteration # 53     ecut=    60.00 Ry     beta= 0.70
     Davidson diagonalization with overlap
     ethr =  8.00E-07,  avg # of iterations =  3.8

     total cpu time spent up to now is     1978.7 secs

     total energy              =    -427.11825611 Ry
     Harris-Foulkes estimate   =    -427.12111936 Ry
     estimated scf accuracy    <       0.01482134 Ry

     total magnetization       =     0.19 Bohr mag/cell
     absolute magnetization    =    10.20 Bohr mag/cell

     iteration # 54     ecut=    60.00 Ry     beta= 0.70
     Davidson diagonalization with overlap
     ethr =  8.00E-07,  avg # of iterations =  4.5

     total cpu time spent up to now is     2025.4 secs

     total energy              =    -427.11968111 Ry
     Harris-Foulkes estimate   =    -427.12015752 Ry
     estimated scf accuracy    <       0.00514835 Ry

     total magnetization       =    -0.13 Bohr mag/cell
     absolute magnetization    =    10.17 Bohr mag/cell

     iteration # 55     ecut=    60.00 Ry     beta= 0.70
     Davidson diagonalization with overlap
     ethr =  8.00E-07,  avg # of iterations =  3.0

     total cpu time spent up to now is     2063.6 secs

     total energy              =    -427.11994306 Ry
     Harris-Foulkes estimate   =    -427.12002884 Ry
     estimated scf accuracy    <       0.00087653 Ry

     total magnetization       =     0.05 Bohr mag/cell
     absolute magnetization    =    10.18 Bohr mag/cell

     iteration # 56     ecut=    60.00 Ry     beta= 0.70
     Davidson diagonalization with overlap
     ethr =  8.00E-07,  avg # of iterations =  1.5

     total cpu time spent up to now is     2096.5 secs

     total energy              =    -427.11998768 Ry
     Harris-Foulkes estimate   =    -427.12000328 Ry
     estimated scf accuracy    <       0.00024527 Ry

     total magnetization       =    -0.03 Bohr mag/cell
     absolute magnetization    =    10.18 Bohr mag/cell

     iteration # 57     ecut=    60.00 Ry     beta= 0.70
     Davidson diagonalization with overlap
     ethr =  8.00E-07,  avg # of iterations =  1.0

     total cpu time spent up to now is     2127.3 secs

     total energy              =    -427.11999741 Ry
     Harris-Foulkes estimate   =    -427.12000034 Ry
     estimated scf accuracy    <       0.00002293 Ry

     total magnetization       =     0.01 Bohr mag/cell
     absolute magnetization    =    10.18 Bohr mag/cell

     iteration # 58     ecut=    60.00 Ry     beta= 0.70
     Davidson diagonalization with overlap
     ethr =  7.64E-08,  avg # of iterations =  1.5

     Magnetic moment per site:
     atom:    1    charge:   14.9653    magn:    5.0127    constr:    0.0000
     atom:    2    charge:   14.9648    magn:   -5.0133    constr:    0.0000

     total cpu time spent up to now is     2161.2 secs

     End of self-consistent calculation

 ------ SPIN UP ------------


          k = 0.0625 0.0625 0.0625 ( 37509 PWs)   bands (ev):

   -86.5603 -81.1726 -55.2624 -55.2624 -55.2624 -49.9928 -49.9928 -49.9928
    -7.2558  -7.2558  -7.2558  -7.2552  -7.2552  -4.5754  -3.5418  -2.8232
    -2.8232  -2.8195  -2.8195

          k = 0.0625 0.0625 0.1875 ( 37474 PWs)   bands (ev):

   -86.5603 -81.1726 -55.2624 -55.2624 -55.2624 -49.9928 -49.9928 -49.9928
    -7.2558  -7.2558  -7.2558  -7.2552  -7.2552  -4.5735  -3.5401  -2.8233
    -2.8233  -2.8232  -2.8195

          k = 0.0625 0.0625 0.3125 ( 37486 PWs)   bands (ev):

   -86.5603 -81.1726 -55.2624 -55.2624 -55.2624 -49.9928 -49.9928 -49.9928
    -7.2559  -7.2558  -7.2558  -7.2552  -7.2552  -4.5707  -3.5377  -2.8236
    -2.8235  -2.8194  -2.8183

          k = 0.0625 0.0625 0.4375 ( 37493 PWs)   bands (ev):

   -86.5603 -81.1726 -55.2624 -55.2624 -55.2624 -49.9928 -49.9928 -49.9928
    -7.2559  -7.2558  -7.2558  -7.2552  -7.2552  -4.5688  -3.5361  -2.8237
    -2.8236  -2.8194  -2.8178

          k = 0.0625 0.1875 0.1875 ( 37486 PWs)   bands (ev):

   -86.5603 -81.1726 -55.2624 -55.2624 -55.2624 -49.9928 -49.9928 -49.9928
    -7.2559  -7.2558  -7.2558  -7.2552  -7.2552  -4.5717  -3.5379  -2.8235
    -2.8233  -2.8192  -2.8187

          k = 0.0625 0.1875 0.3125 ( 37437 PWs)   bands (ev):

   -86.5603 -81.1726 -55.2624 -55.2624 -55.2624 -49.9928 -49.9928 -49.9928
    -7.2558  -7.2558  -7.2558  -7.2552  -7.2551  -4.5691  -3.5348  -2.8236
    -2.8234  -2.8191  -2.8181

          k = 0.0625 0.1875 0.4375 ( 37481 PWs)   bands (ev):

   -86.5603 -81.1726 -55.2624 -55.2624 -55.2624 -49.9928 -49.9928 -49.9928
    -7.2559  -7.2558  -7.2558  -7.2552  -7.2551  -4.5673  -3.5326  -2.8238
    -2.8236  -2.8191  -2.8177

          k = 0.0625 0.3125 0.3125 ( 37469 PWs)   bands (ev):

   -86.5603 -81.1726 -55.2624 -55.2624 -55.2624 -49.9928 -49.9928 -49.9928
    -7.2559  -7.2558  -7.2558  -7.2552  -7.2551  -4.5669  -3.5306  -2.8239
    -2.8235  -2.8188  -2.8177

          k = 0.0625 0.3125 0.4375 ( 37432 PWs)   bands (ev):

   -86.5603 -81.1726 -55.2624 -55.2624 -55.2624 -49.9928 -49.9928 -49.9928
    -7.2558  -7.2558  -7.2558  -7.2552  -7.2551  -4.5652  -3.5276  -2.8239
    -2.8236  -2.8187  -2.8173

          k = 0.0625 0.4375 0.4375 ( 37435 PWs)   bands (ev):

   -86.5603 -81.1726 -55.2624 -55.2624 -55.2624 -49.9928 -49.9928 -49.9928
    -7.2558  -7.2558  -7.2558  -7.2552  -7.2551  -4.5637  -3.5241  -2.8240
    -2.8236  -2.8236  -2.8185

          k = 0.1875 0.1875 0.1875 ( 37455 PWs)   bands (ev):

   -86.5603 -81.1726 -55.2624 -55.2624 -55.2624 -49.9928 -49.9928 -49.9928
    -7.2558  -7.2558  -7.2558  -7.2552  -7.2552  -4.5700  -3.5354  -2.8235
    -2.8235  -2.8234  -2.8187

          k = 0.1875 0.1875 0.3125 ( 37447 PWs)   bands (ev):

   -86.5603 -81.1726 -55.2624 -55.2624 -55.2624 -49.9928 -49.9928 -49.9928
    -7.2558  -7.2558  -7.2558  -7.2552  -7.2551  -4.5676  -3.5318  -2.8237
    -2.8236  -2.8234  -2.8187

          k = 0.1875 0.1875 0.4375 ( 37443 PWs)   bands (ev):

   -86.5603 -81.1726 -55.2624 -55.2624 -55.2624 -49.9928 -49.9928 -49.9928
    -7.2558  -7.2558  -7.2558  -7.2552  -7.2551  -4.5659  -3.5292  -2.8239
    -2.8237  -2.8187  -2.8176

          k = 0.1875 0.3125 0.3125 ( 37465 PWs)   bands (ev):

   -86.5603 -81.1726 -55.2624 -55.2624 -55.2624 -49.9928 -49.9928 -49.9928
    -7.2559  -7.2558  -7.2558  -7.2552  -7.2551  -4.5654  -3.5275  -2.8238
    -2.8237  -2.8183  -2.8177

          k = 0.1875 0.3125 0.4375 ( 37477 PWs)   bands (ev):

   -86.5603 -81.1726 -55.2624 -55.2624 -55.2624 -49.9928 -49.9928 -49.9928
    -7.2559  -7.2558  -7.2558  -7.2552  -7.2551  -4.5638  -3.5244  -2.8239
    -2.8238  -2.8183  -2.8173

          k = 0.1875 0.4375 0.4375 ( 37473 PWs)   bands (ev):

   -86.5603 -81.1726 -55.2624 -55.2624 -55.2624 -49.9928 -49.9928 -49.9928
    -7.2559  -7.2558  -7.2558  -7.2552  -7.2551  -4.5624  -3.5210  -2.8242
    -2.8238  -2.8181  -2.8170

          k = 0.3125 0.3125 0.3125 ( 37455 PWs)   bands (ev):

   -86.5603 -81.1726 -55.2624 -55.2624 -55.2624 -49.9928 -49.9928 -49.9928
    -7.2559  -7.2559  -7.2558  -7.2551  -7.2551  -4.5633  -3.5230  -2.8240
    -2.8240  -2.8238  -2.8177

          k = 0.3125 0.3125 0.4375 ( 37474 PWs)   bands (ev):

   -86.5603 -81.1726 -55.2624 -55.2624 -55.2624 -49.9928 -49.9928 -49.9928
    -7.2559  -7.2559  -7.2558  -7.2551  -7.2551  -4.5618  -3.5198  -2.8242
    -2.8240  -2.8239  -2.8177

          k = 0.3125 0.4375 0.4375 ( 37498 PWs)   bands (ev):

   -86.5603 -81.1726 -55.2624 -55.2624 -55.2624 -49.9928 -49.9928 -49.9928
    -7.2559  -7.2559  -7.2559  -7.2551  -7.2551  -4.5604  -3.5166  -2.8243
    -2.8241  -2.8174  -2.8170

          k = 0.4375 0.4375 0.4375 ( 37506 PWs)   bands (ev):

   -86.5603 -81.1726 -55.2624 -55.2624 -55.2624 -49.9928 -49.9928 -49.9928
    -7.2559  -7.2559  -7.2559  -7.2551  -7.2551  -4.5590  -3.5134  -2.8244
    -2.8243  -2.8169  -2.8169

 ------ SPIN DOWN ----------


          k = 0.0625 0.0625 0.0625 ( 37509 PWs)   bands (ev):

   -86.5590 -81.1726 -55.2611 -55.2611 -55.2611 -49.9927 -49.9927 -49.9927
    -7.2564  -7.2564  -7.2537  -7.2537  -7.2537  -4.5763  -3.5424  -2.8234
    -2.8232  -2.8204  -2.8204

          k = 0.0625 0.0625 0.1875 ( 37474 PWs)   bands (ev):

   -86.5589 -81.1726 -55.2611 -55.2611 -55.2611 -49.9927 -49.9927 -49.9927
    -7.2564  -7.2563  -7.2537  -7.2537  -7.2537  -4.5743  -3.5407  -2.8234
    -2.8229  -2.8205  -2.8204

          k = 0.0625 0.0625 0.3125 ( 37486 PWs)   bands (ev):

   -86.5589 -81.1726 -55.2611 -55.2611 -55.2611 -49.9927 -49.9927 -49.9927
    -7.2563  -7.2563  -7.2537  -7.2537  -7.2537  -4.5716  -3.5383  -2.8230
    -2.8218  -2.8208  -2.8207

          k = 0.0625 0.0625 0.4375 ( 37493 PWs)   bands (ev):

   -86.5590 -81.1726 -55.2611 -55.2611 -55.2611 -49.9927 -49.9927 -49.9927
    -7.2563  -7.2563  -7.2537  -7.2537  -7.2537  -4.5697  -3.5366  -2.8233
    -2.8218  -2.8209  -2.8209

          k = 0.0625 0.1875 0.1875 ( 37486 PWs)   bands (ev):

   -86.5589 -81.1726 -55.2611 -55.2611 -55.2611 -49.9927 -49.9927 -49.9927
    -7.2563  -7.2563  -7.2537  -7.2537  -7.2537  -4.5726  -3.5385  -2.8231
    -2.8222  -2.8206  -2.8205

          k = 0.0625 0.1875 0.3125 ( 37437 PWs)   bands (ev):

   -86.5589 -81.1726 -55.2611 -55.2611 -55.2611 -49.9927 -49.9927 -49.9927
    -7.2563  -7.2563  -7.2537  -7.2537  -7.2537  -4.5700  -3.5353  -2.8230
    -2.8221  -2.8208  -2.8206

          k = 0.0625 0.1875 0.4375 ( 37481 PWs)   bands (ev):

   -86.5589 -81.1726 -55.2611 -55.2611 -55.2611 -49.9927 -49.9927 -49.9927
    -7.2563  -7.2563  -7.2537  -7.2537  -7.2537  -4.5682  -3.5331  -2.8230
    -2.8211  -2.8210  -2.8208

          k = 0.0625 0.3125 0.3125 ( 37469 PWs)   bands (ev):

   -86.5589 -81.1726 -55.2611 -55.2611 -55.2611 -49.9927 -49.9927 -49.9927
    -7.2563  -7.2563  -7.2537  -7.2537  -7.2537  -4.5678  -3.5312  -2.8228
    -2.8214  -2.8210  -2.8207

          k = 0.0625 0.3125 0.4375 ( 37432 PWs)   bands (ev):

   -86.5589 -81.1726 -55.2611 -55.2611 -55.2611 -49.9927 -49.9927 -49.9927
    -7.2563  -7.2562  -7.2537  -7.2537  -7.2537  -4.5661  -3.5282  -2.8226
    -2.8212  -2.8210  -2.8208

          k = 0.0625 0.4375 0.4375 ( 37435 PWs)   bands (ev):

   -86.5589 -81.1726 -55.2611 -55.2611 -55.2611 -49.9927 -49.9927 -49.9927
    -7.2563  -7.2562  -7.2537  -7.2537  -7.2537  -4.5646  -3.5247  -2.8225
    -2.8213  -2.8208  -2.8208

          k = 0.1875 0.1875 0.1875 ( 37455 PWs)   bands (ev):

   -86.5589 -81.1726 -55.2611 -55.2611 -55.2611 -49.9927 -49.9927 -49.9927
    -7.2563  -7.2563  -7.2537  -7.2537  -7.2537  -4.5709  -3.5359  -2.8227
    -2.8226  -2.8207  -2.8206

          k = 0.1875 0.1875 0.3125 ( 37447 PWs)   bands (ev):

   -86.5589 -81.1726 -55.2611 -55.2611 -55.2611 -49.9927 -49.9927 -49.9927
    -7.2563  -7.2563  -7.2537  -7.2537  -7.2537  -4.5685  -3.5323  -2.8220
    -2.8219  -2.8208  -2.8207

          k = 0.1875 0.1875 0.4375 ( 37443 PWs)   bands (ev):

   -86.5589 -81.1726 -55.2611 -55.2611 -55.2611 -49.9927 -49.9927 -49.9927
    -7.2563  -7.2562  -7.2537  -7.2537  -7.2537  -4.5668  -3.5298  -2.8217
    -2.8213  -2.8211  -2.8206

          k = 0.1875 0.3125 0.3125 ( 37465 PWs)   bands (ev):

   -86.5589 -81.1726 -55.2611 -55.2611 -55.2611 -49.9927 -49.9927 -49.9927
    -7.2563  -7.2563  -7.2537  -7.2537  -7.2537  -4.5663  -3.5280  -2.8219
    -2.8214  -2.8210  -2.8209

          k = 0.1875 0.3125 0.4375 ( 37477 PWs)   bands (ev):

   -86.5589 -81.1726 -55.2611 -55.2611 -55.2611 -49.9927 -49.9927 -49.9927
    -7.2563  -7.2562  -7.2537  -7.2537  -7.2537  -4.5647  -3.5250  -2.8222
    -2.8213  -2.8210  -2.8209

          k = 0.1875 0.4375 0.4375 ( 37473 PWs)   bands (ev):

   -86.5589 -81.1726 -55.2611 -55.2611 -55.2611 -49.9927 -49.9927 -49.9927
    -7.2563  -7.2562  -7.2537  -7.2537  -7.2537  -4.5633  -3.5215  -2.8220
    -2.8214  -2.8210  -2.8210

          k = 0.3125 0.3125 0.3125 ( 37455 PWs)   bands (ev):

   -86.5589 -81.1726 -55.2611 -55.2611 -55.2611 -49.9927 -49.9927 -49.9927
    -7.2562  -7.2562  -7.2537  -7.2537  -7.2537  -4.5642  -3.5236  -2.8216
    -2.8215  -2.8212  -2.8210

          k = 0.3125 0.3125 0.4375 ( 37474 PWs)   bands (ev):

   -86.5589 -81.1726 -55.2611 -55.2611 -55.2611 -49.9927 -49.9927 -49.9927
    -7.2563  -7.2562  -7.2537  -7.2537  -7.2537  -4.5627  -3.5204  -2.8216
    -2.8214  -2.8212  -2.8211

          k = 0.3125 0.4375 0.4375 ( 37498 PWs)   bands (ev):

   -86.5589 -81.1726 -55.2611 -55.2611 -55.2611 -49.9927 -49.9927 -49.9927
    -7.2563  -7.2562  -7.2537  -7.2537  -7.2537  -4.5613  -3.5171  -2.8215
    -2.8214  -2.8213  -2.8213

          k = 0.4375 0.4375 0.4375 ( 37506 PWs)   bands (ev):

   -86.5590 -81.1726 -55.2611 -55.2611 -55.2611 -49.9927 -49.9927 -49.9927
    -7.2562  -7.2562  -7.2538  -7.2537  -7.2537  -4.5599  -3.5140  -2.8216
    -2.8216  -2.8215  -2.8209

     the Fermi energy is    -3.1690 ev

!    total energy              =    -427.11999926 Ry
     Harris-Foulkes estimate   =    -427.11999930 Ry
     estimated scf accuracy    <       0.00000032 Ry

     The total energy is the sum of the following terms:

     one-electron contribution =    -533.16764736 Ry
     hartree contribution      =     258.72463963 Ry
     xc contribution           =     -55.42395757 Ry
     ewald contribution        =     -97.26259587 Ry
     smearing contrib. (-TS)   =       0.00956190 Ry

     total magnetization       =    -0.00 Bohr mag/cell
     absolute magnetization    =    10.18 Bohr mag/cell

     convergence has been achieved in  58 iterations

     Writing output data file mn-10.save/

     init_run     :     13.21s CPU     14.08s WALL (       1 calls)
     electrons    :   2058.05s CPU   2145.85s WALL (       1 calls)

     Called by init_run:
     wfcinit      :      7.41s CPU      7.55s WALL (       1 calls)
     potinit      :      1.66s CPU      1.74s WALL (       1 calls)
     hinit0       :      0.88s CPU      0.91s WALL (       1 calls)

     Called by electrons:
     c_bands      :   1161.88s CPU   1177.40s WALL (      58 calls)
     sum_band     :    648.88s CPU    685.30s WALL (      58 calls)
     v_of_rho     :     73.66s CPU     74.92s WALL (      59 calls)
     newd         :    150.84s CPU    185.58s WALL (      59 calls)
     mix_rho      :     17.27s CPU     17.55s WALL (      58 calls)

     Called by c_bands:
     init_us_2    :     12.45s CPU     12.50s WALL (    4680 calls)
     cegterg      :   1117.55s CPU   1132.94s WALL (    2320 calls)

     Called by sum_band:
     sum_band:bec :      0.06s CPU      0.06s WALL (    2320 calls)
     addusdens    :    448.57s CPU    481.58s WALL (      58 calls)

     Called by *egterg:
     h_psi        :    833.20s CPU    848.28s WALL (    8481 calls)
     s_psi        :     47.61s CPU     47.75s WALL (    8481 calls)
     g_psi        :      3.45s CPU      3.46s WALL (    6121 calls)
     cdiaghg      :      6.19s CPU      6.21s WALL (    8441 calls)

     Called by h_psi:
     h_psi:pot    :    830.37s CPU    845.44s WALL (    8481 calls)
     h_psi:calbec :     68.43s CPU     68.86s WALL (    8481 calls)
     vloc_psi     :    711.63s CPU    726.21s WALL (    8481 calls)
     add_vuspsi   :     50.22s CPU     50.32s WALL (    8481 calls)

     General routines
     calbec       :     94.02s CPU     94.55s WALL (   10801 calls)
     fft          :     62.17s CPU     64.19s WALL (    1469 calls)
     ffts         :      1.48s CPU      1.54s WALL (     234 calls)
     fftw         :    746.38s CPU    761.70s WALL (  270662 calls)
     interpolate  :      7.01s CPU      7.16s WALL (     118 calls)

     Parallel routines
     fft_scatt_xy :    101.11s CPU    102.88s WALL (  272365 calls)
     fft_scatt_yz :    300.48s CPU    309.50s WALL (  272365 calls)

     PWSCF        :  34m33.06s CPU  36m 2.11s WALL


   This run was terminated on:  22:20:35  25May2022            

=------------------------------------------------------------------------------=
   JOB DONE.
=------------------------------------------------------------------------------=
