
     Program PWSCF v.6.4.1 starts on 26May2022 at  0:53:50 

     This program is part of the open-source Quantum ESPRESSO suite
     for quantum simulation of materials; please cite
         "P. Giannozzi et al., J. Phys.:Condens. Matter 21 395502 (2009);
         "P. Giannozzi et al., J. Phys.:Condens. Matter 29 465901 (2017);
          URL http://www.quantum-espresso.org", 
     in publications or presentations arising from this work. More details at
     http://www.quantum-espresso.org/quote

     Parallel version (MPI), running on     6 processors

     MPI processes distributed on     1 nodes
     R & G space division:  proc/nbgrp/npool/nimage =       6
     Reading input from mn-16.in

     Current dimensions of program PWSCF are:
     Max number of different atomic species (ntypx) = 10
     Max number of k-points (npk) =  40000
     Max angular momentum in pseudopotentials (lmaxx) =  3
               file Mn.pbe-spn-rrkjus_psl.0.3.1.UPF: wavefunction(s)  3D renormalized
               file Mn.pbe-spn-rrkjus_psl.0.3.1.UPF: wavefunction(s)  3D renormalized

     Subspace diagonalization in iterative solution of the eigenvalue problem:
     a serial algorithm will be used

     Message from routine setup:
     DEPRECATED: symmetry with ibrav=0, use correct ibrav instead

     Parallelization info
     --------------------
     sticks:   dense  smooth     PW     G-vecs:    dense   smooth      PW
     Min        3612     902    242               399609    49988    6974
     Max        3614     903    243               399610    49991    6977
     Sum       21677    5417   1457              2397659   299939   41851



     bravais-lattice index     =            0
     lattice parameter (alat)  =      16.8375  a.u.
     unit-cell volume          =    4773.4208 (a.u.)^3
     number of atoms/cell      =            2
     number of atomic types    =            2
     number of electrons       =        30.00
     number of Kohn-Sham states=           19
     kinetic-energy cutoff     =      60.0000  Ry
     charge density cutoff     =     960.0000  Ry
     convergence threshold     =      1.0E-06
     mixing beta               =       0.7000
     number of iterations used =            8  plain     mixing
     Exchange-correlation      = PBE ( 1  4  3  4 0 0)

     celldm(1)=  16.837460  celldm(2)=   0.000000  celldm(3)=   0.000000
     celldm(4)=   0.000000  celldm(5)=   0.000000  celldm(6)=   0.000000

     crystal axes: (cart. coord. in units of alat)
               a(1) = (   1.000000   0.000000   0.000000 )  
               a(2) = (   0.000000   1.000000   0.000000 )  
               a(3) = (   0.000000   0.000000   1.000000 )  

     reciprocal axes: (cart. coord. in units 2 pi/alat)
               b(1) = (  1.000000  0.000000  0.000000 )  
               b(2) = (  0.000000  1.000000  0.000000 )  
               b(3) = (  0.000000  0.000000  1.000000 )  


     PseudoPot. # 1 for Mn read from file:
     /home/cristian/Escritorio/Proyecto_Grafeno/pseudopotenciales/Mn.pbe-spn-rrkjus_psl.0.3.1.UPF
     MD5 check sum: e1cac159bdd2ba70c18e85765a5d4279
     Pseudo is Ultrasoft + core correction, Zval = 15.0
     Generated using "atomic" code by A. Dal Corso v.6.2.2
     Using radial grid of 1187 points,  6 beta functions with: 
                l(1) =   0
                l(2) =   0
                l(3) =   1
                l(4) =   1
                l(5) =   2
                l(6) =   2
     Q(r) pseudized with 0 coefficients 


     PseudoPot. # 2 for Mn read from file:
     /home/cristian/Escritorio/Proyecto_Grafeno/pseudopotenciales/Mn.pbe-spn-rrkjus_psl.0.3.1.UPF
     MD5 check sum: e1cac159bdd2ba70c18e85765a5d4279
     Pseudo is Ultrasoft + core correction, Zval = 15.0
     Generated using "atomic" code by A. Dal Corso v.6.2.2
     Using radial grid of 1187 points,  6 beta functions with: 
                l(1) =   0
                l(2) =   0
                l(3) =   1
                l(4) =   1
                l(5) =   2
                l(6) =   2
     Q(r) pseudized with 0 coefficients 


     atomic species   valence    mass     pseudopotential
        Mn1           15.00    54.93804     Mn( 1.00)
        Mn2           15.00    54.93804     Mn( 1.00)

     Starting magnetic structure 
     atomic species   magnetization
        Mn1          0.100
        Mn2         -0.100

     48 Sym. Ops., with inversion, found



   Cartesian axes

     site n.     atom                  positions (alat units)
         1           Mn1 tau(   1) = (   0.0000000   0.0000000   0.0000000  )
         2           Mn2 tau(   2) = (   0.5000000   0.5000000   0.5000000  )

     number of k points=    20  Methfessel-Paxton smearing, width (Ry)=  0.0300
                       cart. coord. in units 2pi/alat
        k(    1) = (   0.0625000   0.0625000   0.0625000), wk =   0.0156250
        k(    2) = (   0.0625000   0.0625000   0.1875000), wk =   0.0468750
        k(    3) = (   0.0625000   0.0625000   0.3125000), wk =   0.0468750
        k(    4) = (   0.0625000   0.0625000   0.4375000), wk =   0.0468750
        k(    5) = (   0.0625000   0.1875000   0.1875000), wk =   0.0468750
        k(    6) = (   0.0625000   0.1875000   0.3125000), wk =   0.0937500
        k(    7) = (   0.0625000   0.1875000   0.4375000), wk =   0.0937500
        k(    8) = (   0.0625000   0.3125000   0.3125000), wk =   0.0468750
        k(    9) = (   0.0625000   0.3125000   0.4375000), wk =   0.0937500
        k(   10) = (   0.0625000   0.4375000   0.4375000), wk =   0.0468750
        k(   11) = (   0.1875000   0.1875000   0.1875000), wk =   0.0156250
        k(   12) = (   0.1875000   0.1875000   0.3125000), wk =   0.0468750
        k(   13) = (   0.1875000   0.1875000   0.4375000), wk =   0.0468750
        k(   14) = (   0.1875000   0.3125000   0.3125000), wk =   0.0468750
        k(   15) = (   0.1875000   0.3125000   0.4375000), wk =   0.0937500
        k(   16) = (   0.1875000   0.4375000   0.4375000), wk =   0.0468750
        k(   17) = (   0.3125000   0.3125000   0.3125000), wk =   0.0156250
        k(   18) = (   0.3125000   0.3125000   0.4375000), wk =   0.0468750
        k(   19) = (   0.3125000   0.4375000   0.4375000), wk =   0.0468750
        k(   20) = (   0.4375000   0.4375000   0.4375000), wk =   0.0156250

     Dense  grid:  2397659 G-vectors     FFT dimensions: ( 180, 180, 180)

     Smooth grid:   299939 G-vectors     FFT dimensions: (  90,  90,  90)

     Estimated max dynamical RAM per process >       1.60 GB

     Estimated total dynamical RAM >       9.60 GB
     Generating pointlists ...
     new r_m :   0.3572 (alat units)  6.0149 (a.u.) for type    1
     new r_m :   0.3572 (alat units)  6.0149 (a.u.) for type    2

     Initial potential from superposition of free atoms

     starting charge   29.99900, renormalised to   30.00000

     negative rho (up, down):  3.328E-08 0.000E+00
     Starting wfcs are   20 randomized atomic wfcs

     total cpu time spent up to now is       22.3 secs

     Self-consistent Calculation

     iteration #  1     ecut=    60.00 Ry     beta= 0.70
     Davidson diagonalization with overlap
     ethr =  1.00E-02,  avg # of iterations =  1.0

     negative rho (up, down):  4.455E-09 9.259E-06

     total cpu time spent up to now is       66.8 secs

     total energy              =    -424.94337169 Ry
     Harris-Foulkes estimate   =    -427.04359941 Ry
     estimated scf accuracy    <       2.74254898 Ry

     total magnetization       =    -0.00 Bohr mag/cell
     absolute magnetization    =     5.98 Bohr mag/cell

     iteration #  2     ecut=    60.00 Ry     beta= 0.70
     Davidson diagonalization with overlap
     ethr =  9.14E-03,  avg # of iterations = 10.9

     total cpu time spent up to now is      155.0 secs

     total energy              =    -423.45081027 Ry
     Harris-Foulkes estimate   =    -433.86584362 Ry
     estimated scf accuracy    <      46.98250084 Ry

     total magnetization       =     0.02 Bohr mag/cell
     absolute magnetization    =     0.50 Bohr mag/cell

     iteration #  3     ecut=    60.00 Ry     beta= 0.70
     Davidson diagonalization with overlap
     ethr =  9.14E-03,  avg # of iterations =  8.1

     total cpu time spent up to now is      217.7 secs

     total energy              =    -424.94003608 Ry
     Harris-Foulkes estimate   =    -425.73171246 Ry
     estimated scf accuracy    <       6.41702187 Ry

     total magnetization       =     0.25 Bohr mag/cell
     absolute magnetization    =     4.99 Bohr mag/cell

     iteration #  4     ecut=    60.00 Ry     beta= 0.70
     Davidson diagonalization with overlap
     ethr =  9.14E-03,  avg # of iterations =  6.4

     total cpu time spent up to now is      271.0 secs

     total energy              =    -426.54366695 Ry
     Harris-Foulkes estimate   =    -426.57521472 Ry
     estimated scf accuracy    <       0.28221656 Ry

     total magnetization       =    -1.96 Bohr mag/cell
     absolute magnetization    =     5.28 Bohr mag/cell

     iteration #  5     ecut=    60.00 Ry     beta= 0.70
     Davidson diagonalization with overlap
     ethr =  9.41E-04,  avg # of iterations =  6.6

     total cpu time spent up to now is      331.0 secs

     total energy              =    -426.95112286 Ry
     Harris-Foulkes estimate   =    -426.95021398 Ry
     estimated scf accuracy    <       0.87711759 Ry

     total magnetization       =     0.54 Bohr mag/cell
     absolute magnetization    =     8.85 Bohr mag/cell

     iteration #  6     ecut=    60.00 Ry     beta= 0.70
     Davidson diagonalization with overlap
     ethr =  9.41E-04,  avg # of iterations =  1.5

     total cpu time spent up to now is      378.1 secs

     total energy              =    -426.99254607 Ry
     Harris-Foulkes estimate   =    -426.96728722 Ry
     estimated scf accuracy    <       2.65017862 Ry

     total magnetization       =     1.88 Bohr mag/cell
     absolute magnetization    =     8.18 Bohr mag/cell

     iteration #  7     ecut=    60.00 Ry     beta= 0.70
     Davidson diagonalization with overlap
     ethr =  9.41E-04,  avg # of iterations =  2.6

     total cpu time spent up to now is      429.1 secs

     total energy              =    -427.25623753 Ry
     Harris-Foulkes estimate   =    -427.15287878 Ry
     estimated scf accuracy    <       3.12746564 Ry

     total magnetization       =     0.70 Bohr mag/cell
     absolute magnetization    =     5.89 Bohr mag/cell

     iteration #  8     ecut=    60.00 Ry     beta= 0.70
     Davidson diagonalization with overlap
     ethr =  9.41E-04,  avg # of iterations =  1.8

     total cpu time spent up to now is      477.2 secs

     total energy              =    -427.10929869 Ry
     Harris-Foulkes estimate   =    -427.27440663 Ry
     estimated scf accuracy    <       4.25599470 Ry

     total magnetization       =     1.63 Bohr mag/cell
     absolute magnetization    =     3.76 Bohr mag/cell

     iteration #  9     ecut=    60.00 Ry     beta= 0.70
     Davidson diagonalization with overlap
     ethr =  9.41E-04,  avg # of iterations =  1.1

     total cpu time spent up to now is      523.8 secs

     total energy              =    -427.18438555 Ry
     Harris-Foulkes estimate   =    -427.18094103 Ry
     estimated scf accuracy    <      10.21780237 Ry

     total magnetization       =     3.46 Bohr mag/cell
     absolute magnetization    =     4.72 Bohr mag/cell

     iteration # 10     ecut=    60.00 Ry     beta= 0.70
     Davidson diagonalization with overlap
