
     Program PWSCF v.6.4.1 starts on 25May2022 at 22:59: 9 

     This program is part of the open-source Quantum ESPRESSO suite
     for quantum simulation of materials; please cite
         "P. Giannozzi et al., J. Phys.:Condens. Matter 21 395502 (2009);
         "P. Giannozzi et al., J. Phys.:Condens. Matter 29 465901 (2017);
          URL http://www.quantum-espresso.org", 
     in publications or presentations arising from this work. More details at
     http://www.quantum-espresso.org/quote

     Parallel version (MPI), running on     6 processors

     MPI processes distributed on     1 nodes
     R & G space division:  proc/nbgrp/npool/nimage =       6
     Reading input from mn-12.in

     Current dimensions of program PWSCF are:
     Max number of different atomic species (ntypx) = 10
     Max number of k-points (npk) =  40000
     Max angular momentum in pseudopotentials (lmaxx) =  3
               file Mn.pbe-spn-rrkjus_psl.0.3.1.UPF: wavefunction(s)  3D renormalized
               file Mn.pbe-spn-rrkjus_psl.0.3.1.UPF: wavefunction(s)  3D renormalized

     Subspace diagonalization in iterative solution of the eigenvalue problem:
     a serial algorithm will be used

     Message from routine setup:
     DEPRECATED: symmetry with ibrav=0, use correct ibrav instead

     Parallelization info
     --------------------
     sticks:   dense  smooth     PW     G-vecs:    dense   smooth      PW
     Min        2706     902    242               259592    49988    6974
     Max        2707     903    243               259597    49991    6977
     Sum       16237    5417   1457              1557563   299939   41851



     bravais-lattice index     =            0
     lattice parameter (alat)  =      16.8375  a.u.
     unit-cell volume          =    4773.4208 (a.u.)^3
     number of atoms/cell      =            2
     number of atomic types    =            2
     number of electrons       =        30.00
     number of Kohn-Sham states=           19
     kinetic-energy cutoff     =      60.0000  Ry
     charge density cutoff     =     720.0000  Ry
     convergence threshold     =      1.0E-06
     mixing beta               =       0.7000
     number of iterations used =            8  plain     mixing
     Exchange-correlation      = PBE ( 1  4  3  4 0 0)

     celldm(1)=  16.837460  celldm(2)=   0.000000  celldm(3)=   0.000000
     celldm(4)=   0.000000  celldm(5)=   0.000000  celldm(6)=   0.000000

     crystal axes: (cart. coord. in units of alat)
               a(1) = (   1.000000   0.000000   0.000000 )  
               a(2) = (   0.000000   1.000000   0.000000 )  
               a(3) = (   0.000000   0.000000   1.000000 )  

     reciprocal axes: (cart. coord. in units 2 pi/alat)
               b(1) = (  1.000000  0.000000  0.000000 )  
               b(2) = (  0.000000  1.000000  0.000000 )  
               b(3) = (  0.000000  0.000000  1.000000 )  


     PseudoPot. # 1 for Mn read from file:
     /home/cristian/Escritorio/Proyecto_Grafeno/pseudopotenciales/Mn.pbe-spn-rrkjus_psl.0.3.1.UPF
     MD5 check sum: e1cac159bdd2ba70c18e85765a5d4279
     Pseudo is Ultrasoft + core correction, Zval = 15.0
     Generated using "atomic" code by A. Dal Corso v.6.2.2
     Using radial grid of 1187 points,  6 beta functions with: 
                l(1) =   0
                l(2) =   0
                l(3) =   1
                l(4) =   1
                l(5) =   2
                l(6) =   2
     Q(r) pseudized with 0 coefficients 


     PseudoPot. # 2 for Mn read from file:
     /home/cristian/Escritorio/Proyecto_Grafeno/pseudopotenciales/Mn.pbe-spn-rrkjus_psl.0.3.1.UPF
     MD5 check sum: e1cac159bdd2ba70c18e85765a5d4279
     Pseudo is Ultrasoft + core correction, Zval = 15.0
     Generated using "atomic" code by A. Dal Corso v.6.2.2
     Using radial grid of 1187 points,  6 beta functions with: 
                l(1) =   0
                l(2) =   0
                l(3) =   1
                l(4) =   1
                l(5) =   2
                l(6) =   2
     Q(r) pseudized with 0 coefficients 


     atomic species   valence    mass     pseudopotential
        Mn1           15.00    54.93804     Mn( 1.00)
        Mn2           15.00    54.93804     Mn( 1.00)

     Starting magnetic structure 
     atomic species   magnetization
        Mn1          0.100
        Mn2         -0.100

     48 Sym. Ops., with inversion, found



   Cartesian axes

     site n.     atom                  positions (alat units)
         1           Mn1 tau(   1) = (   0.0000000   0.0000000   0.0000000  )
         2           Mn2 tau(   2) = (   0.5000000   0.5000000   0.5000000  )

     number of k points=    20  Methfessel-Paxton smearing, width (Ry)=  0.0300
                       cart. coord. in units 2pi/alat
        k(    1) = (   0.0625000   0.0625000   0.0625000), wk =   0.0156250
        k(    2) = (   0.0625000   0.0625000   0.1875000), wk =   0.0468750
        k(    3) = (   0.0625000   0.0625000   0.3125000), wk =   0.0468750
        k(    4) = (   0.0625000   0.0625000   0.4375000), wk =   0.0468750
        k(    5) = (   0.0625000   0.1875000   0.1875000), wk =   0.0468750
        k(    6) = (   0.0625000   0.1875000   0.3125000), wk =   0.0937500
        k(    7) = (   0.0625000   0.1875000   0.4375000), wk =   0.0937500
        k(    8) = (   0.0625000   0.3125000   0.3125000), wk =   0.0468750
        k(    9) = (   0.0625000   0.3125000   0.4375000), wk =   0.0937500
        k(   10) = (   0.0625000   0.4375000   0.4375000), wk =   0.0468750
        k(   11) = (   0.1875000   0.1875000   0.1875000), wk =   0.0156250
        k(   12) = (   0.1875000   0.1875000   0.3125000), wk =   0.0468750
        k(   13) = (   0.1875000   0.1875000   0.4375000), wk =   0.0468750
        k(   14) = (   0.1875000   0.3125000   0.3125000), wk =   0.0468750
        k(   15) = (   0.1875000   0.3125000   0.4375000), wk =   0.0937500
        k(   16) = (   0.1875000   0.4375000   0.4375000), wk =   0.0468750
        k(   17) = (   0.3125000   0.3125000   0.3125000), wk =   0.0156250
        k(   18) = (   0.3125000   0.3125000   0.4375000), wk =   0.0468750
        k(   19) = (   0.3125000   0.4375000   0.4375000), wk =   0.0468750
        k(   20) = (   0.4375000   0.4375000   0.4375000), wk =   0.0156250

     Dense  grid:  1557563 G-vectors     FFT dimensions: ( 144, 144, 144)

     Smooth grid:   299939 G-vectors     FFT dimensions: (  90,  90,  90)

     Estimated max dynamical RAM per process >       1.06 GB

     Estimated total dynamical RAM >       6.33 GB
     Generating pointlists ...
     new r_m :   0.3572 (alat units)  6.0149 (a.u.) for type    1
     new r_m :   0.3572 (alat units)  6.0149 (a.u.) for type    2

     Initial potential from superposition of free atoms

     starting charge   29.99900, renormalised to   30.00000
     Starting wfcs are   20 randomized atomic wfcs

     total cpu time spent up to now is       17.5 secs

     Self-consistent Calculation

     iteration #  1     ecut=    60.00 Ry     beta= 0.70
     Davidson diagonalization with overlap
     ethr =  1.00E-02,  avg # of iterations =  1.0

     negative rho (up, down):  0.000E+00 6.109E-04

     total cpu time spent up to now is       53.7 secs

     total energy              =    -424.94335827 Ry
     Harris-Foulkes estimate   =    -427.04363209 Ry
     estimated scf accuracy    <       2.74254037 Ry

     total magnetization       =    -0.00 Bohr mag/cell
     absolute magnetization    =     5.98 Bohr mag/cell

     iteration #  2     ecut=    60.00 Ry     beta= 0.70
     Davidson diagonalization with overlap
     ethr =  9.14E-03,  avg # of iterations = 10.8

     total cpu time spent up to now is      135.5 secs

     total energy              =    -423.44861905 Ry
     Harris-Foulkes estimate   =    -433.86839458 Ry
     estimated scf accuracy    <      47.00337442 Ry

     total magnetization       =     0.03 Bohr mag/cell
     absolute magnetization    =     0.51 Bohr mag/cell

     iteration #  3     ecut=    60.00 Ry     beta= 0.70
     Davidson diagonalization with overlap
     ethr =  9.14E-03,  avg # of iterations =  8.1

     total cpu time spent up to now is      190.1 secs

     total energy              =    -424.87285169 Ry
     Harris-Foulkes estimate   =    -425.69458980 Ry
     estimated scf accuracy    <       6.79974270 Ry

     total magnetization       =     0.49 Bohr mag/cell
     absolute magnetization    =     5.02 Bohr mag/cell

     iteration #  4     ecut=    60.00 Ry     beta= 0.70
     Davidson diagonalization with overlap
     ethr =  9.14E-03,  avg # of iterations =  6.4

     total cpu time spent up to now is      234.1 secs

     total energy              =    -426.58558278 Ry
     Harris-Foulkes estimate   =    -426.67219129 Ry
     estimated scf accuracy    <       0.75511268 Ry

     total magnetization       =    -1.82 Bohr mag/cell
     absolute magnetization    =     5.87 Bohr mag/cell

     iteration #  5     ecut=    60.00 Ry     beta= 0.70
     Davidson diagonalization with overlap
     ethr =  2.52E-03,  avg # of iterations =  5.9

     total cpu time spent up to now is      278.7 secs

     total energy              =    -426.96506621 Ry
     Harris-Foulkes estimate   =    -426.96069565 Ry
     estimated scf accuracy    <       1.19416102 Ry

     total magnetization       =     0.78 Bohr mag/cell
     absolute magnetization    =     8.59 Bohr mag/cell

     iteration #  6     ecut=    60.00 Ry     beta= 0.70
     Davidson diagonalization with overlap
     ethr =  2.52E-03,  avg # of iterations =  1.0

     total cpu time spent up to now is      312.7 secs

     total energy              =    -427.01650135 Ry
     Harris-Foulkes estimate   =    -426.97129891 Ry
     estimated scf accuracy    <       2.33977606 Ry

     total magnetization       =     1.48 Bohr mag/cell
     absolute magnetization    =     8.12 Bohr mag/cell

     iteration #  7     ecut=    60.00 Ry     beta= 0.70
     Davidson diagonalization with overlap
     ethr =  2.52E-03,  avg # of iterations =  1.4

     total cpu time spent up to now is      347.3 secs

     total energy              =    -427.13674046 Ry
     Harris-Foulkes estimate   =    -427.17679577 Ry
     estimated scf accuracy    <       6.03929906 Ry

     total magnetization       =     2.99 Bohr mag/cell
     absolute magnetization    =     5.62 Bohr mag/cell

     iteration #  8     ecut=    60.00 Ry     beta= 0.70
     Davidson diagonalization with overlap
     ethr =  2.52E-03,  avg # of iterations =  1.2

     total cpu time spent up to now is      384.1 secs

     total energy              =    -427.00576804 Ry
     Harris-Foulkes estimate   =    -427.14465008 Ry
     estimated scf accuracy    <       5.72833680 Ry

     total magnetization       =     2.78 Bohr mag/cell
     absolute magnetization    =     5.69 Bohr mag/cell

     iteration #  9     ecut=    60.00 Ry     beta= 0.70
     Davidson diagonalization with overlap
     ethr =  2.52E-03,  avg # of iterations =  1.0

     total cpu time spent up to now is      421.5 secs

     total energy              =    -426.60029363 Ry
     Harris-Foulkes estimate   =    -427.00932526 Ry
     estimated scf accuracy    <       3.82295481 Ry

     total magnetization       =     1.77 Bohr mag/cell
     absolute magnetization    =     5.56 Bohr mag/cell

     iteration # 10     ecut=    60.00 Ry     beta= 0.70
     Davidson diagonalization with overlap
     ethr =  2.52E-03,  avg # of iterations =  1.6

     total cpu time spent up to now is      458.1 secs

     total energy              =    -426.95570283 Ry
     Harris-Foulkes estimate   =    -426.95990968 Ry
     estimated scf accuracy    <       0.29904455 Ry

     total magnetization       =    -0.15 Bohr mag/cell
     absolute magnetization    =     9.81 Bohr mag/cell

     iteration # 11     ecut=    60.00 Ry     beta= 0.70
     Davidson diagonalization with overlap
     ethr =  9.97E-04,  avg # of iterations =  1.5

     total cpu time spent up to now is      495.0 secs

     total energy              =    -426.93592873 Ry
     Harris-Foulkes estimate   =    -426.97059987 Ry
     estimated scf accuracy    <       0.29382627 Ry

     total magnetization       =    -0.21 Bohr mag/cell
     absolute magnetization    =     9.92 Bohr mag/cell

     iteration # 12     ecut=    60.00 Ry     beta= 0.70
     Davidson diagonalization with overlap
     ethr =  9.79E-04,  avg # of iterations =  1.1

     total cpu time spent up to now is      531.1 secs

     total energy              =    -427.06156183 Ry
     Harris-Foulkes estimate   =    -426.94496544 Ry
     estimated scf accuracy    <       0.19264902 Ry

     total magnetization       =    -0.23 Bohr mag/cell
     absolute magnetization    =     9.89 Bohr mag/cell

     iteration # 13     ecut=    60.00 Ry     beta= 0.70
     Davidson diagonalization with overlap
     ethr =  6.42E-04,  avg # of iterations =  4.2

     total cpu time spent up to now is      572.9 secs

     total energy              =    -427.18567222 Ry
     Harris-Foulkes estimate   =    -427.21137777 Ry
     estimated scf accuracy    <       0.38188897 Ry

     total magnetization       =    -0.40 Bohr mag/cell
     absolute magnetization    =    10.06 Bohr mag/cell

     iteration # 14     ecut=    60.00 Ry     beta= 0.70
     Davidson diagonalization with overlap
     ethr =  6.42E-04,  avg # of iterations =  1.4

     total cpu time spent up to now is      607.6 secs

     total energy              =    -427.12751633 Ry
     Harris-Foulkes estimate   =    -427.18780368 Ry
     estimated scf accuracy    <       0.28897162 Ry

     total magnetization       =    -0.30 Bohr mag/cell
     absolute magnetization    =    10.07 Bohr mag/cell

     iteration # 15     ecut=    60.00 Ry     beta= 0.70
     Davidson diagonalization with overlap
     ethr =  6.42E-04,  avg # of iterations =  2.5

     negative rho (up, down):  0.000E+00 2.000E-02

     total cpu time spent up to now is      643.7 secs

     total energy              =    -427.01628499 Ry
     Harris-Foulkes estimate   =    -427.13244786 Ry
     estimated scf accuracy    <       0.16774021 Ry

     total magnetization       =    -0.24 Bohr mag/cell
     absolute magnetization    =    10.12 Bohr mag/cell

     iteration # 16     ecut=    60.00 Ry     beta= 0.70
     Davidson diagonalization with overlap
     ethr =  5.59E-04,  avg # of iterations =  3.7

     negative rho (up, down):  0.000E+00 1.420E-03

     total cpu time spent up to now is      683.6 secs

     total energy              =    -427.05529149 Ry
     Harris-Foulkes estimate   =    -427.07288792 Ry
     estimated scf accuracy    <       0.36235455 Ry

     total magnetization       =    -0.90 Bohr mag/cell
     absolute magnetization    =    10.01 Bohr mag/cell

     iteration # 17     ecut=    60.00 Ry     beta= 0.70
     Davidson diagonalization with overlap
     ethr =  5.59E-04,  avg # of iterations =  1.0

     total cpu time spent up to now is      717.4 secs

     total energy              =    -427.03490513 Ry
     Harris-Foulkes estimate   =    -427.05784685 Ry
     estimated scf accuracy    <       0.49349577 Ry

     total magnetization       =    -1.47 Bohr mag/cell
     absolute magnetization    =    10.04 Bohr mag/cell

     iteration # 18     ecut=    60.00 Ry     beta= 0.70
     Davidson diagonalization with overlap
     ethr =  5.59E-04,  avg # of iterations =  2.0

     total cpu time spent up to now is      753.2 secs

     total energy              =    -427.12691867 Ry
     Harris-Foulkes estimate   =    -427.09804215 Ry
     estimated scf accuracy    <       0.08678419 Ry

     total magnetization       =    -0.08 Bohr mag/cell
     absolute magnetization    =    10.19 Bohr mag/cell

     iteration # 19     ecut=    60.00 Ry     beta= 0.70
     Davidson diagonalization with overlap
     ethr =  2.89E-04,  avg # of iterations =  1.8

     total cpu time spent up to now is      788.1 secs

     total energy              =    -427.11754398 Ry
     Harris-Foulkes estimate   =    -427.12784283 Ry
     estimated scf accuracy    <       0.07929744 Ry

     total magnetization       =     0.15 Bohr mag/cell
     absolute magnetization    =    10.16 Bohr mag/cell

     iteration # 20     ecut=    60.00 Ry     beta= 0.70
     Davidson diagonalization with overlap
     ethr =  2.64E-04,  avg # of iterations =  1.6

     total cpu time spent up to now is      823.4 secs

     total energy              =    -427.11864455 Ry
     Harris-Foulkes estimate   =    -427.11993845 Ry
     estimated scf accuracy    <       0.03173442 Ry

     total magnetization       =     0.04 Bohr mag/cell
     absolute magnetization    =    10.16 Bohr mag/cell

     iteration # 21     ecut=    60.00 Ry     beta= 0.70
     Davidson diagonalization with overlap
     ethr =  1.06E-04,  avg # of iterations =  1.4

     total cpu time spent up to now is      857.4 secs

     total energy              =    -427.11892443 Ry
     Harris-Foulkes estimate   =    -427.11953644 Ry
     estimated scf accuracy    <       0.02011401 Ry

     total magnetization       =    -0.12 Bohr mag/cell
     absolute magnetization    =    10.16 Bohr mag/cell

     iteration # 22     ecut=    60.00 Ry     beta= 0.70
     Davidson diagonalization with overlap
     ethr =  6.70E-05,  avg # of iterations =  1.0

     total cpu time spent up to now is      893.0 secs

     total energy              =    -427.11725763 Ry
     Harris-Foulkes estimate   =    -427.11915963 Ry
     estimated scf accuracy    <       0.01458934 Ry

     total magnetization       =    -0.09 Bohr mag/cell
     absolute magnetization    =    10.16 Bohr mag/cell

     iteration # 23     ecut=    60.00 Ry     beta= 0.70
     Davidson diagonalization with overlap
     ethr =  4.86E-05,  avg # of iterations =  2.0

     total cpu time spent up to now is      930.8 secs

     total energy              =    -427.11745516 Ry
     Harris-Foulkes estimate   =    -427.11832271 Ry
     estimated scf accuracy    <       0.01190182 Ry

     total magnetization       =    -0.13 Bohr mag/cell
     absolute magnetization    =    10.17 Bohr mag/cell

     iteration # 24     ecut=    60.00 Ry     beta= 0.70
     Davidson diagonalization with overlap
     ethr =  3.97E-05,  avg # of iterations =  1.1

     total cpu time spent up to now is      966.4 secs

     total energy              =    -427.11653618 Ry
     Harris-Foulkes estimate   =    -427.11768284 Ry
     estimated scf accuracy    <       0.00796948 Ry

     total magnetization       =    -0.13 Bohr mag/cell
     absolute magnetization    =    10.17 Bohr mag/cell

     iteration # 25     ecut=    60.00 Ry     beta= 0.70
     Davidson diagonalization with overlap
     ethr =  2.66E-05,  avg # of iterations =  2.7

     total cpu time spent up to now is     1003.1 secs

     total energy              =    -427.11742103 Ry
     Harris-Foulkes estimate   =    -427.11726248 Ry
     estimated scf accuracy    <       0.00234866 Ry

     total magnetization       =    -0.12 Bohr mag/cell
     absolute magnetization    =    10.16 Bohr mag/cell

     iteration # 26     ecut=    60.00 Ry     beta= 0.70
     Davidson diagonalization with overlap
     ethr =  7.83E-06,  avg # of iterations =  1.9

     total cpu time spent up to now is     1039.6 secs

     total energy              =    -427.11681696 Ry
     Harris-Foulkes estimate   =    -427.11764285 Ry
     estimated scf accuracy    <       0.00238362 Ry

     total magnetization       =     0.01 Bohr mag/cell
     absolute magnetization    =    10.16 Bohr mag/cell

     iteration # 27     ecut=    60.00 Ry     beta= 0.70
     Davidson diagonalization with overlap
     ethr =  7.83E-06,  avg # of iterations =  3.4

     total cpu time spent up to now is     1079.2 secs

     total energy              =    -427.12056228 Ry
     Harris-Foulkes estimate   =    -427.12014209 Ry
     estimated scf accuracy    <       0.00122260 Ry

     total magnetization       =     0.04 Bohr mag/cell
     absolute magnetization    =    10.19 Bohr mag/cell

     iteration # 28     ecut=    60.00 Ry     beta= 0.70
     Davidson diagonalization with overlap
     ethr =  4.08E-06,  avg # of iterations =  2.5

     total cpu time spent up to now is     1120.0 secs

     total energy              =    -427.11963833 Ry
     Harris-Foulkes estimate   =    -427.12092144 Ry
     estimated scf accuracy    <       0.00561510 Ry

     total magnetization       =     0.05 Bohr mag/cell
     absolute magnetization    =    10.20 Bohr mag/cell

     iteration # 29     ecut=    60.00 Ry     beta= 0.70
     Davidson diagonalization with overlap
     ethr =  4.08E-06,  avg # of iterations =  2.5

     total cpu time spent up to now is     1160.8 secs

     total energy              =    -427.11971654 Ry
     Harris-Foulkes estimate   =    -427.12007264 Ry
     estimated scf accuracy    <       0.00068643 Ry

     total magnetization       =     0.02 Bohr mag/cell
     absolute magnetization    =    10.19 Bohr mag/cell

     iteration # 30     ecut=    60.00 Ry     beta= 0.70
     Davidson diagonalization with overlap
     ethr =  2.29E-06,  avg # of iterations =  2.9

     total cpu time spent up to now is     1204.4 secs

     total energy              =    -427.11973045 Ry
     Harris-Foulkes estimate   =    -427.12011767 Ry
     estimated scf accuracy    <       0.00089583 Ry

     total magnetization       =    -0.02 Bohr mag/cell
     absolute magnetization    =    10.16 Bohr mag/cell

     iteration # 31     ecut=    60.00 Ry     beta= 0.70
     Davidson diagonalization with overlap
     ethr =  2.29E-06,  avg # of iterations =  2.5

     total cpu time spent up to now is     1243.8 secs

     total energy              =    -427.12004697 Ry
     Harris-Foulkes estimate   =    -427.12004114 Ry
     estimated scf accuracy    <       0.00032176 Ry

     total magnetization       =     0.02 Bohr mag/cell
     absolute magnetization    =    10.18 Bohr mag/cell

     iteration # 32     ecut=    60.00 Ry     beta= 0.70
     Davidson diagonalization with overlap
     ethr =  1.07E-06,  avg # of iterations =  1.0

     total cpu time spent up to now is     1278.2 secs

     total energy              =    -427.12002590 Ry
     Harris-Foulkes estimate   =    -427.12005019 Ry
     estimated scf accuracy    <       0.00034670 Ry

     total magnetization       =     0.01 Bohr mag/cell
     absolute magnetization    =    10.18 Bohr mag/cell

     iteration # 33     ecut=    60.00 Ry     beta= 0.70
     Davidson diagonalization with overlap
     ethr =  1.07E-06,  avg # of iterations =  1.0

     total cpu time spent up to now is     1314.0 secs

     total energy              =    -427.11998655 Ry
     Harris-Foulkes estimate   =    -427.12002963 Ry
     estimated scf accuracy    <       0.00019430 Ry

     total magnetization       =     0.01 Bohr mag/cell
     absolute magnetization    =    10.18 Bohr mag/cell

     iteration # 34     ecut=    60.00 Ry     beta= 0.70
     Davidson diagonalization with overlap
     ethr =  6.48E-07,  avg # of iterations =  1.5

     total cpu time spent up to now is     1350.8 secs

     total energy              =    -427.12000273 Ry
     Harris-Foulkes estimate   =    -427.12000576 Ry
     estimated scf accuracy    <       0.00001051 Ry

     total magnetization       =     0.00 Bohr mag/cell
     absolute magnetization    =    10.18 Bohr mag/cell

     iteration # 35     ecut=    60.00 Ry     beta= 0.70
     Davidson diagonalization with overlap
     ethr =  3.50E-08,  avg # of iterations =  3.4

     total cpu time spent up to now is     1390.4 secs

     total energy              =    -427.12000544 Ry
     Harris-Foulkes estimate   =    -427.12000644 Ry
     estimated scf accuracy    <       0.00000370 Ry

     total magnetization       =    -0.00 Bohr mag/cell
     absolute magnetization    =    10.18 Bohr mag/cell

     iteration # 36     ecut=    60.00 Ry     beta= 0.70
     Davidson diagonalization with overlap
     ethr =  1.23E-08,  avg # of iterations =  2.3

     Magnetic moment per site:
     atom:    1    charge:   14.9650    magn:    5.0132    constr:    0.0000
     atom:    2    charge:   14.9655    magn:   -5.0126    constr:    0.0000

     total cpu time spent up to now is     1427.8 secs

     End of self-consistent calculation

 ------ SPIN UP ------------


          k = 0.0625 0.0625 0.0625 ( 37509 PWs)   bands (ev):

   -86.5595 -81.1719 -55.2615 -55.2615 -55.2615 -49.9920 -49.9920 -49.9920
    -7.2548  -7.2547  -7.2547  -7.2547  -7.2547  -4.5744  -3.5412  -2.8235
    -2.8190  -2.8190  -2.8190

          k = 0.0625 0.0625 0.1875 ( 37474 PWs)   bands (ev):

   -86.5595 -81.1719 -55.2615 -55.2615 -55.2615 -49.9920 -49.9920 -49.9920
    -7.2548  -7.2547  -7.2547  -7.2547  -7.2547  -4.5725  -3.5395  -2.8234
    -2.8229  -2.8192  -2.8190

          k = 0.0625 0.0625 0.3125 ( 37486 PWs)   bands (ev):

   -86.5595 -81.1719 -55.2615 -55.2615 -55.2615 -49.9920 -49.9920 -49.9920
    -7.2548  -7.2547  -7.2547  -7.2547  -7.2546  -4.5698  -3.5371  -2.8234
    -2.8219  -2.8194  -2.8192

          k = 0.0625 0.0625 0.4375 ( 37493 PWs)   bands (ev):

   -86.5595 -81.1719 -55.2615 -55.2615 -55.2615 -49.9920 -49.9920 -49.9920
    -7.2548  -7.2548  -7.2547  -7.2547  -7.2546  -4.5679  -3.5355  -2.8227
    -2.8217  -2.8195  -2.8195

          k = 0.0625 0.1875 0.1875 ( 37486 PWs)   bands (ev):

   -86.5595 -81.1719 -55.2615 -55.2615 -55.2615 -49.9920 -49.9920 -49.9920
    -7.2548  -7.2547  -7.2547  -7.2547  -7.2546  -4.5707  -3.5373  -2.8230
    -2.8225  -2.8193  -2.8191

          k = 0.0625 0.1875 0.3125 ( 37437 PWs)   bands (ev):

   -86.5595 -81.1719 -55.2615 -55.2615 -55.2615 -49.9920 -49.9920 -49.9920
    -7.2547  -7.2547  -7.2547  -7.2547  -7.2546  -4.5682  -3.5342  -2.8231
    -2.8222  -2.8195  -2.8192

          k = 0.0625 0.1875 0.4375 ( 37481 PWs)   bands (ev):

   -86.5595 -81.1719 -55.2615 -55.2615 -55.2615 -49.9920 -49.9920 -49.9920
    -7.2548  -7.2548  -7.2547  -7.2547  -7.2546  -4.5664  -3.5321  -2.8231
    -2.8212  -2.8196  -2.8194

          k = 0.0625 0.3125 0.3125 ( 37469 PWs)   bands (ev):

   -86.5595 -81.1719 -55.2615 -55.2615 -55.2615 -49.9920 -49.9920 -49.9920
    -7.2548  -7.2547  -7.2547  -7.2547  -7.2546  -4.5660  -3.5301  -2.8229
    -2.8197  -2.8193  -2.8193

          k = 0.0625 0.3125 0.4375 ( 37432 PWs)   bands (ev):

   -86.5595 -81.1719 -55.2615 -55.2615 -55.2615 -49.9920 -49.9920 -49.9920
    -7.2547  -7.2547  -7.2547  -7.2546  -7.2546  -4.5644  -3.5272  -2.8227
    -2.8198  -2.8194  -2.8193

          k = 0.0625 0.4375 0.4375 ( 37435 PWs)   bands (ev):

   -86.5595 -81.1719 -55.2615 -55.2615 -55.2615 -49.9920 -49.9920 -49.9920
    -7.2547  -7.2547  -7.2547  -7.2546  -7.2546  -4.5629  -3.5237  -2.8226
    -2.8199  -2.8194  -2.8194

          k = 0.1875 0.1875 0.1875 ( 37455 PWs)   bands (ev):

   -86.5595 -81.1719 -55.2615 -55.2615 -55.2615 -49.9920 -49.9920 -49.9920
    -7.2547  -7.2547  -7.2547  -7.2546  -7.2546  -4.5691  -3.5348  -2.8228
    -2.8212  -2.8193  -2.8193

          k = 0.1875 0.1875 0.3125 ( 37447 PWs)   bands (ev):

   -86.5595 -81.1719 -55.2615 -55.2615 -55.2615 -49.9920 -49.9920 -49.9920
    -7.2547  -7.2547  -7.2547  -7.2546  -7.2546  -4.5667  -3.5313  -2.8227
    -2.8195  -2.8194  -2.8192

          k = 0.1875 0.1875 0.4375 ( 37443 PWs)   bands (ev):

   -86.5595 -81.1719 -55.2615 -55.2615 -55.2615 -49.9920 -49.9920 -49.9920
    -7.2548  -7.2547  -7.2547  -7.2546  -7.2546  -4.5650  -3.5287  -2.8227
    -2.8197  -2.8196  -2.8195

          k = 0.1875 0.3125 0.3125 ( 37465 PWs)   bands (ev):

   -86.5595 -81.1719 -55.2615 -55.2615 -55.2615 -49.9920 -49.9920 -49.9920
    -7.2548  -7.2547  -7.2547  -7.2546  -7.2546  -4.5645  -3.5270  -2.8224
    -2.8212  -2.8196  -2.8195

          k = 0.1875 0.3125 0.4375 ( 37477 PWs)   bands (ev):

   -86.5595 -81.1719 -55.2615 -55.2615 -55.2615 -49.9920 -49.9920 -49.9920
    -7.2548  -7.2548  -7.2547  -7.2546  -7.2546  -4.5630  -3.5240  -2.8223
    -2.8201  -2.8196  -2.8195

          k = 0.1875 0.4375 0.4375 ( 37473 PWs)   bands (ev):

   -86.5595 -81.1719 -55.2615 -55.2615 -55.2615 -49.9920 -49.9920 -49.9920
    -7.2548  -7.2547  -7.2547  -7.2546  -7.2546  -4.5615  -3.5206  -2.8222
    -2.8200  -2.8197  -2.8196

          k = 0.3125 0.3125 0.3125 ( 37455 PWs)   bands (ev):

   -86.5595 -81.1719 -55.2615 -55.2615 -55.2615 -49.9920 -49.9920 -49.9920
    -7.2548  -7.2548  -7.2547  -7.2546  -7.2546  -4.5625  -3.5226  -2.8217
    -2.8199  -2.8198  -2.8196

          k = 0.3125 0.3125 0.4375 ( 37474 PWs)   bands (ev):

   -86.5595 -81.1719 -55.2615 -55.2615 -55.2615 -49.9920 -49.9920 -49.9920
    -7.2548  -7.2548  -7.2547  -7.2546  -7.2546  -4.5610  -3.5195  -2.8217
    -2.8201  -2.8198  -2.8198

          k = 0.3125 0.4375 0.4375 ( 37498 PWs)   bands (ev):

   -86.5595 -81.1719 -55.2615 -55.2615 -55.2615 -49.9920 -49.9920 -49.9920
    -7.2548  -7.2548  -7.2548  -7.2546  -7.2546  -4.5596  -3.5163  -2.8214
    -2.8201  -2.8200  -2.8199

          k = 0.4375 0.4375 0.4375 ( 37506 PWs)   bands (ev):

   -86.5595 -81.1719 -55.2615 -55.2615 -55.2615 -49.9920 -49.9920 -49.9920
    -7.2548  -7.2548  -7.2548  -7.2546  -7.2546  -4.5582  -3.5131  -2.8210
    -2.8202  -2.8202  -2.8202

 ------ SPIN DOWN ----------


          k = 0.0625 0.0625 0.0625 ( 37509 PWs)   bands (ev):

   -86.5593 -81.1713 -55.2614 -55.2614 -55.2614 -49.9914 -49.9914 -49.9914
    -7.2552  -7.2552  -7.2552  -7.2539  -7.2539  -4.5747  -3.5415  -2.8216
    -2.8215  -2.8197  -2.8197

          k = 0.0625 0.0625 0.1875 ( 37474 PWs)   bands (ev):

   -86.5593 -81.1713 -55.2614 -55.2614 -55.2614 -49.9914 -49.9914 -49.9914
    -7.2552  -7.2552  -7.2552  -7.2539  -7.2538  -4.5728  -3.5398  -2.8215
    -2.8210  -2.8198  -2.8197

          k = 0.0625 0.0625 0.3125 ( 37486 PWs)   bands (ev):

   -86.5593 -81.1713 -55.2614 -55.2614 -55.2614 -49.9914 -49.9914 -49.9914
    -7.2552  -7.2552  -7.2552  -7.2539  -7.2538  -4.5702  -3.5374  -2.8214
    -2.8204  -2.8201  -2.8200

          k = 0.0625 0.0625 0.4375 ( 37493 PWs)   bands (ev):

   -86.5593 -81.1713 -55.2614 -55.2614 -55.2614 -49.9914 -49.9914 -49.9914
    -7.2552  -7.2552  -7.2552  -7.2539  -7.2538  -4.5683  -3.5358  -2.8214
    -2.8202  -2.8199  -2.8197

          k = 0.0625 0.1875 0.1875 ( 37486 PWs)   bands (ev):

   -86.5593 -81.1713 -55.2614 -55.2614 -55.2614 -49.9914 -49.9914 -49.9914
    -7.2552  -7.2552  -7.2552  -7.2539  -7.2538  -4.5711  -3.5376  -2.8213
    -2.8208  -2.8200  -2.8198

          k = 0.0625 0.1875 0.3125 ( 37437 PWs)   bands (ev):

   -86.5593 -81.1713 -55.2614 -55.2614 -55.2614 -49.9914 -49.9914 -49.9914
    -7.2552  -7.2552  -7.2552  -7.2538  -7.2538  -4.5686  -3.5345  -2.8212
    -2.8202  -2.8201  -2.8199

          k = 0.0625 0.1875 0.4375 ( 37481 PWs)   bands (ev):

   -86.5593 -81.1713 -55.2614 -55.2614 -55.2614 -49.9914 -49.9914 -49.9914
    -7.2552  -7.2552  -7.2552  -7.2538  -7.2538  -4.5668  -3.5324  -2.8211
    -2.8203  -2.8202  -2.8198

          k = 0.0625 0.3125 0.3125 ( 37469 PWs)   bands (ev):

   -86.5593 -81.1713 -55.2614 -55.2614 -55.2614 -49.9914 -49.9914 -49.9914
    -7.2552  -7.2552  -7.2552  -7.2538  -7.2538  -4.5663  -3.5304  -2.8209
    -2.8203  -2.8200  -2.8199

          k = 0.0625 0.3125 0.4375 ( 37432 PWs)   bands (ev):

   -86.5593 -81.1713 -55.2614 -55.2614 -55.2614 -49.9914 -49.9914 -49.9914
    -7.2552  -7.2552  -7.2552  -7.2538  -7.2537  -4.5647  -3.5275  -2.8208
    -2.8204  -2.8201  -2.8195

          k = 0.0625 0.4375 0.4375 ( 37435 PWs)   bands (ev):

   -86.5593 -81.1713 -55.2614 -55.2614 -55.2614 -49.9914 -49.9914 -49.9914
    -7.2552  -7.2552  -7.2552  -7.2538  -7.2538  -4.5632  -3.5240  -2.8206
    -2.8205  -2.8201  -2.8201

          k = 0.1875 0.1875 0.1875 ( 37455 PWs)   bands (ev):

   -86.5593 -81.1713 -55.2614 -55.2614 -55.2614 -49.9914 -49.9914 -49.9914
    -7.2552  -7.2552  -7.2552  -7.2538  -7.2538  -4.5694  -3.5351  -2.8208
    -2.8208  -2.8200  -2.8199

          k = 0.1875 0.1875 0.3125 ( 37447 PWs)   bands (ev):

   -86.5593 -81.1713 -55.2614 -55.2614 -55.2614 -49.9914 -49.9914 -49.9914
    -7.2552  -7.2552  -7.2552  -7.2538  -7.2538  -4.5670  -3.5316  -2.8206
    -2.8202  -2.8201  -2.8200

          k = 0.1875 0.1875 0.4375 ( 37443 PWs)   bands (ev):

   -86.5593 -81.1713 -55.2614 -55.2614 -55.2614 -49.9914 -49.9914 -49.9914
    -7.2552  -7.2552  -7.2552  -7.2538  -7.2538  -4.5653  -3.5290  -2.8207
    -2.8202  -2.8199  -2.8196

          k = 0.1875 0.3125 0.3125 ( 37465 PWs)   bands (ev):

   -86.5593 -81.1713 -55.2614 -55.2614 -55.2614 -49.9914 -49.9914 -49.9914
    -7.2552  -7.2552  -7.2552  -7.2538  -7.2538  -4.5649  -3.5273  -2.8204
    -2.8202  -2.8201  -2.8198

          k = 0.1875 0.3125 0.4375 ( 37477 PWs)   bands (ev):

   -86.5593 -81.1713 -55.2614 -55.2614 -55.2614 -49.9914 -49.9914 -49.9914
    -7.2552  -7.2552  -7.2552  -7.2538  -7.2538  -4.5633  -3.5243  -2.8205
    -2.8203  -2.8201  -2.8195

          k = 0.1875 0.4375 0.4375 ( 37473 PWs)   bands (ev):

   -86.5593 -81.1713 -55.2614 -55.2614 -55.2614 -49.9914 -49.9914 -49.9914
    -7.2552  -7.2552  -7.2552  -7.2538  -7.2538  -4.5619  -3.5209  -2.8206
    -2.8203  -2.8203  -2.8202

          k = 0.3125 0.3125 0.3125 ( 37455 PWs)   bands (ev):

   -86.5593 -81.1713 -55.2614 -55.2614 -55.2614 -49.9914 -49.9914 -49.9914
    -7.2552  -7.2552  -7.2552  -7.2538  -7.2538  -4.5628  -3.5229  -2.8205
    -2.8203  -2.8200  -2.8197

          k = 0.3125 0.3125 0.4375 ( 37474 PWs)   bands (ev):

   -86.5593 -81.1713 -55.2614 -55.2614 -55.2614 -49.9914 -49.9914 -49.9914
    -7.2552  -7.2552  -7.2552  -7.2538  -7.2538  -4.5613  -3.5198  -2.8206
    -2.8205  -2.8202  -2.8194

          k = 0.3125 0.4375 0.4375 ( 37498 PWs)   bands (ev):

   -86.5593 -81.1713 -55.2614 -55.2614 -55.2614 -49.9914 -49.9914 -49.9914
    -7.2552  -7.2552  -7.2552  -7.2538  -7.2538  -4.5599  -3.5165  -2.8207
    -2.8206  -2.8206  -2.8195

          k = 0.4375 0.4375 0.4375 ( 37506 PWs)   bands (ev):

   -86.5593 -81.1713 -55.2614 -55.2614 -55.2614 -49.9914 -49.9914 -49.9914
    -7.2553  -7.2552  -7.2552  -7.2538  -7.2538  -4.5586  -3.5134  -2.8208
    -2.8208  -2.8208  -2.8190

     the Fermi energy is    -3.1681 ev

!    total energy              =    -427.12000595 Ry
     Harris-Foulkes estimate   =    -427.12000606 Ry
     estimated scf accuracy    <       0.00000016 Ry

     The total energy is the sum of the following terms:

     one-electron contribution =    -533.17392603 Ry
     hartree contribution      =     258.73159438 Ry
     xc contribution           =     -55.42465327 Ry
     ewald contribution        =     -97.26259587 Ry
     smearing contrib. (-TS)   =       0.00957483 Ry

     total magnetization       =     0.00 Bohr mag/cell
     absolute magnetization    =    10.18 Bohr mag/cell

     convergence has been achieved in  36 iterations

     Writing output data file mn-12.save/

     init_run     :     15.08s CPU     16.13s WALL (       1 calls)
     electrons    :   1338.73s CPU   1410.40s WALL (       1 calls)

     Called by init_run:
     wfcinit      :      7.25s CPU      7.38s WALL (       1 calls)
     potinit      :      2.08s CPU      2.14s WALL (       1 calls)
     hinit0       :      1.03s CPU      1.06s WALL (       1 calls)

     Called by electrons:
     c_bands      :    642.62s CPU    653.09s WALL (      36 calls)
     sum_band     :    499.12s CPU    529.68s WALL (      36 calls)
     v_of_rho     :     55.64s CPU     57.81s WALL (      37 calls)
     newd         :    128.26s CPU    156.99s WALL (      37 calls)
     mix_rho      :     11.91s CPU     12.22s WALL (      36 calls)

     Called by c_bands:
     init_us_2    :      7.67s CPU      7.73s WALL (    2920 calls)
     cegterg      :    616.19s CPU    626.54s WALL (    1440 calls)

     Called by sum_band:
     sum_band:bec :      0.04s CPU      0.04s WALL (    1440 calls)
     addusdens    :    379.16s CPU    407.15s WALL (      36 calls)

     Called by *egterg:
     h_psi        :    465.69s CPU    475.73s WALL (    5183 calls)
     s_psi        :     27.37s CPU     27.47s WALL (    5183 calls)
     g_psi        :      1.90s CPU      1.92s WALL (    3703 calls)
     cdiaghg      :      3.40s CPU      3.42s WALL (    5143 calls)

     Called by h_psi:
     h_psi:pot    :    464.22s CPU    474.25s WALL (    5183 calls)
     h_psi:calbec :     39.51s CPU     39.86s WALL (    5183 calls)
     vloc_psi     :    395.88s CPU    405.47s WALL (    5183 calls)
     add_vuspsi   :     28.78s CPU     28.88s WALL (    5183 calls)

     General routines
     calbec       :     55.00s CPU     55.43s WALL (    6623 calls)
     fft          :     46.84s CPU     48.66s WALL (     919 calls)
     ffts         :      0.87s CPU      0.91s WALL (     146 calls)
     fftw         :    421.74s CPU    432.09s WALL (  161362 calls)
     interpolate  :      4.87s CPU      5.02s WALL (      74 calls)

     Parallel routines
     fft_scatt_xy :     55.95s CPU     57.19s WALL (  162427 calls)
     fft_scatt_yz :    172.29s CPU    178.38s WALL (  162427 calls)

     PWSCF        :  22m35.52s CPU  23m48.66s WALL


   This run was terminated on:  23:22:58  25May2022            

=------------------------------------------------------------------------------=
   JOB DONE.
=------------------------------------------------------------------------------=
