
     Program PWSCF v.6.4.1 starts on 25May2022 at 21:11:53 

     This program is part of the open-source Quantum ESPRESSO suite
     for quantum simulation of materials; please cite
         "P. Giannozzi et al., J. Phys.:Condens. Matter 21 395502 (2009);
         "P. Giannozzi et al., J. Phys.:Condens. Matter 29 465901 (2017);
          URL http://www.quantum-espresso.org", 
     in publications or presentations arising from this work. More details at
     http://www.quantum-espresso.org/quote

     Parallel version (MPI), running on     6 processors

     MPI processes distributed on     1 nodes
     R & G space division:  proc/nbgrp/npool/nimage =       6
     Reading input from mn-9.in

     Current dimensions of program PWSCF are:
     Max number of different atomic species (ntypx) = 10
     Max number of k-points (npk) =  40000
     Max angular momentum in pseudopotentials (lmaxx) =  3
               file Mn.pbe-spn-rrkjus_psl.0.3.1.UPF: wavefunction(s)  3D renormalized
               file Mn.pbe-spn-rrkjus_psl.0.3.1.UPF: wavefunction(s)  3D renormalized

     Subspace diagonalization in iterative solution of the eigenvalue problem:
     a serial algorithm will be used

     Message from routine setup:
     DEPRECATED: symmetry with ibrav=0, use correct ibrav instead

     Parallelization info
     --------------------
     sticks:   dense  smooth     PW     G-vecs:    dense   smooth      PW
     Min        2031     902    242               168552    49988    6974
     Max        2033     903    243               168553    49991    6977
     Sum       12193    5417   1457              1011317   299939   41851



     bravais-lattice index     =            0
     lattice parameter (alat)  =      16.8375  a.u.
     unit-cell volume          =    4773.4208 (a.u.)^3
     number of atoms/cell      =            2
     number of atomic types    =            2
     number of electrons       =        30.00
     number of Kohn-Sham states=           19
     kinetic-energy cutoff     =      60.0000  Ry
     charge density cutoff     =     540.0000  Ry
     convergence threshold     =      1.0E-06
     mixing beta               =       0.7000
     number of iterations used =            8  plain     mixing
     Exchange-correlation      = PBE ( 1  4  3  4 0 0)

     celldm(1)=  16.837460  celldm(2)=   0.000000  celldm(3)=   0.000000
     celldm(4)=   0.000000  celldm(5)=   0.000000  celldm(6)=   0.000000

     crystal axes: (cart. coord. in units of alat)
               a(1) = (   1.000000   0.000000   0.000000 )  
               a(2) = (   0.000000   1.000000   0.000000 )  
               a(3) = (   0.000000   0.000000   1.000000 )  

     reciprocal axes: (cart. coord. in units 2 pi/alat)
               b(1) = (  1.000000  0.000000  0.000000 )  
               b(2) = (  0.000000  1.000000  0.000000 )  
               b(3) = (  0.000000  0.000000  1.000000 )  


     PseudoPot. # 1 for Mn read from file:
     /home/cristian/Escritorio/Proyecto_Grafeno/pseudopotenciales/Mn.pbe-spn-rrkjus_psl.0.3.1.UPF
     MD5 check sum: e1cac159bdd2ba70c18e85765a5d4279
     Pseudo is Ultrasoft + core correction, Zval = 15.0
     Generated using "atomic" code by A. Dal Corso v.6.2.2
     Using radial grid of 1187 points,  6 beta functions with: 
                l(1) =   0
                l(2) =   0
                l(3) =   1
                l(4) =   1
                l(5) =   2
                l(6) =   2
     Q(r) pseudized with 0 coefficients 


     PseudoPot. # 2 for Mn read from file:
     /home/cristian/Escritorio/Proyecto_Grafeno/pseudopotenciales/Mn.pbe-spn-rrkjus_psl.0.3.1.UPF
     MD5 check sum: e1cac159bdd2ba70c18e85765a5d4279
     Pseudo is Ultrasoft + core correction, Zval = 15.0
     Generated using "atomic" code by A. Dal Corso v.6.2.2
     Using radial grid of 1187 points,  6 beta functions with: 
                l(1) =   0
                l(2) =   0
                l(3) =   1
                l(4) =   1
                l(5) =   2
                l(6) =   2
     Q(r) pseudized with 0 coefficients 


     atomic species   valence    mass     pseudopotential
        Mn1           15.00    54.93804     Mn( 1.00)
        Mn2           15.00    54.93804     Mn( 1.00)

     Starting magnetic structure 
     atomic species   magnetization
        Mn1          0.100
        Mn2         -0.100

     48 Sym. Ops., with inversion, found



   Cartesian axes

     site n.     atom                  positions (alat units)
         1           Mn1 tau(   1) = (   0.0000000   0.0000000   0.0000000  )
         2           Mn2 tau(   2) = (   0.5000000   0.5000000   0.5000000  )

     number of k points=    20  Methfessel-Paxton smearing, width (Ry)=  0.0300
                       cart. coord. in units 2pi/alat
        k(    1) = (   0.0625000   0.0625000   0.0625000), wk =   0.0156250
        k(    2) = (   0.0625000   0.0625000   0.1875000), wk =   0.0468750
        k(    3) = (   0.0625000   0.0625000   0.3125000), wk =   0.0468750
        k(    4) = (   0.0625000   0.0625000   0.4375000), wk =   0.0468750
        k(    5) = (   0.0625000   0.1875000   0.1875000), wk =   0.0468750
        k(    6) = (   0.0625000   0.1875000   0.3125000), wk =   0.0937500
        k(    7) = (   0.0625000   0.1875000   0.4375000), wk =   0.0937500
        k(    8) = (   0.0625000   0.3125000   0.3125000), wk =   0.0468750
        k(    9) = (   0.0625000   0.3125000   0.4375000), wk =   0.0937500
        k(   10) = (   0.0625000   0.4375000   0.4375000), wk =   0.0468750
        k(   11) = (   0.1875000   0.1875000   0.1875000), wk =   0.0156250
        k(   12) = (   0.1875000   0.1875000   0.3125000), wk =   0.0468750
        k(   13) = (   0.1875000   0.1875000   0.4375000), wk =   0.0468750
        k(   14) = (   0.1875000   0.3125000   0.3125000), wk =   0.0468750
        k(   15) = (   0.1875000   0.3125000   0.4375000), wk =   0.0937500
        k(   16) = (   0.1875000   0.4375000   0.4375000), wk =   0.0468750
        k(   17) = (   0.3125000   0.3125000   0.3125000), wk =   0.0156250
        k(   18) = (   0.3125000   0.3125000   0.4375000), wk =   0.0468750
        k(   19) = (   0.3125000   0.4375000   0.4375000), wk =   0.0468750
        k(   20) = (   0.4375000   0.4375000   0.4375000), wk =   0.0156250

     Dense  grid:  1011317 G-vectors     FFT dimensions: ( 125, 125, 125)

     Smooth grid:   299939 G-vectors     FFT dimensions: (  90,  90,  90)

     Estimated max dynamical RAM per process >     731.95 MB

     Estimated total dynamical RAM >       4.29 GB
     Generating pointlists ...
     new r_m :   0.3572 (alat units)  6.0149 (a.u.) for type    1
     new r_m :   0.3572 (alat units)  6.0149 (a.u.) for type    2

     Check: negative core charge=   -0.000002

     Initial potential from superposition of free atoms

     starting charge   29.99900, renormalised to   30.00000

     negative rho (up, down):  0.000E+00 1.726E-03
     Starting wfcs are   20 randomized atomic wfcs

     total cpu time spent up to now is       14.9 secs

     Self-consistent Calculation

     iteration #  1     ecut=    60.00 Ry     beta= 0.70
     Davidson diagonalization with overlap
     ethr =  1.00E-02,  avg # of iterations =  1.0

     negative rho (up, down):  9.840E-08 1.156E-02

     total cpu time spent up to now is       43.5 secs

     total energy              =    -424.94278465 Ry
     Harris-Foulkes estimate   =    -427.04337138 Ry
     estimated scf accuracy    <       2.74269442 Ry

     total magnetization       =    -0.00 Bohr mag/cell
     absolute magnetization    =     5.98 Bohr mag/cell

     iteration #  2     ecut=    60.00 Ry     beta= 0.70
     Davidson diagonalization with overlap
     ethr =  9.14E-03,  avg # of iterations = 10.8

     total cpu time spent up to now is      118.4 secs

     total energy              =    -423.42954274 Ry
     Harris-Foulkes estimate   =    -433.88520601 Ry
     estimated scf accuracy    <      47.07790060 Ry

     total magnetization       =     0.03 Bohr mag/cell
     absolute magnetization    =     0.49 Bohr mag/cell

     iteration #  3     ecut=    60.00 Ry     beta= 0.70
     Davidson diagonalization with overlap
     ethr =  9.14E-03,  avg # of iterations =  8.4

     total cpu time spent up to now is      165.3 secs

     total energy              =    -425.25014428 Ry
     Harris-Foulkes estimate   =    -425.85694058 Ry
     estimated scf accuracy    <       5.47581095 Ry

     total magnetization       =     1.14 Bohr mag/cell
     absolute magnetization    =     5.16 Bohr mag/cell

     iteration #  4     ecut=    60.00 Ry     beta= 0.70
     Davidson diagonalization with overlap
     ethr =  9.14E-03,  avg # of iterations =  5.8

     total cpu time spent up to now is      203.4 secs

     total energy              =    -426.57317580 Ry
     Harris-Foulkes estimate   =    -426.79932225 Ry
     estimated scf accuracy    <       1.78347032 Ry

     total magnetization       =    -1.25 Bohr mag/cell
     absolute magnetization    =     5.85 Bohr mag/cell

     iteration #  5     ecut=    60.00 Ry     beta= 0.70
     Davidson diagonalization with overlap
     ethr =  5.94E-03,  avg # of iterations =  2.8

     total cpu time spent up to now is      233.6 secs

     total energy              =    -426.74978975 Ry
     Harris-Foulkes estimate   =    -426.76235703 Ry
     estimated scf accuracy    <       0.94817568 Ry

     total magnetization       =    -0.23 Bohr mag/cell
     absolute magnetization    =     7.67 Bohr mag/cell

     iteration #  6     ecut=    60.00 Ry     beta= 0.70
     Davidson diagonalization with overlap
     ethr =  3.16E-03,  avg # of iterations =  3.8

     total cpu time spent up to now is      265.9 secs

     total energy              =    -426.87753355 Ry
     Harris-Foulkes estimate   =    -426.90309714 Ry
     estimated scf accuracy    <       0.83265488 Ry

     total magnetization       =     0.61 Bohr mag/cell
     absolute magnetization    =     9.33 Bohr mag/cell

     iteration #  7     ecut=    60.00 Ry     beta= 0.70
     Davidson diagonalization with overlap
     ethr =  2.78E-03,  avg # of iterations =  1.3

     total cpu time spent up to now is      294.0 secs

     total energy              =    -426.97308709 Ry
     Harris-Foulkes estimate   =    -426.93402992 Ry
     estimated scf accuracy    <       4.56401515 Ry

     total magnetization       =     1.99 Bohr mag/cell
     absolute magnetization    =     6.78 Bohr mag/cell

     iteration #  8     ecut=    60.00 Ry     beta= 0.70
     Davidson diagonalization with overlap
     ethr =  2.78E-03,  avg # of iterations =  1.8

     total cpu time spent up to now is      322.8 secs

     total energy              =    -427.00684809 Ry
     Harris-Foulkes estimate   =    -427.01048511 Ry
     estimated scf accuracy    <       4.55862843 Ry

     total magnetization       =     2.15 Bohr mag/cell
     absolute magnetization    =     5.52 Bohr mag/cell

     iteration #  9     ecut=    60.00 Ry     beta= 0.70
     Davidson diagonalization with overlap
     ethr =  2.78E-03,  avg # of iterations =  1.5

     total cpu time spent up to now is      350.2 secs

     total energy              =    -427.01161351 Ry
     Harris-Foulkes estimate   =    -427.02481482 Ry
     estimated scf accuracy    <       5.33220436 Ry

     total magnetization       =     2.65 Bohr mag/cell
     absolute magnetization    =     5.56 Bohr mag/cell

     iteration # 10     ecut=    60.00 Ry     beta= 0.70
     Davidson diagonalization with overlap
     ethr =  2.78E-03,  avg # of iterations =  1.4

     total cpu time spent up to now is      377.5 secs

     total energy              =    -426.78438471 Ry
     Harris-Foulkes estimate   =    -427.01608058 Ry
     estimated scf accuracy    <       5.78146916 Ry

     total magnetization       =     2.82 Bohr mag/cell
     absolute magnetization    =     5.59 Bohr mag/cell

     iteration # 11     ecut=    60.00 Ry     beta= 0.70
     Davidson diagonalization with overlap
     ethr =  2.78E-03,  avg # of iterations =  2.0

     total cpu time spent up to now is      406.5 secs

     total energy              =    -426.95901406 Ry
     Harris-Foulkes estimate   =    -427.01085823 Ry
     estimated scf accuracy    <       1.80568589 Ry

     total magnetization       =     1.79 Bohr mag/cell
     absolute magnetization    =     9.65 Bohr mag/cell

     iteration # 12     ecut=    60.00 Ry     beta= 0.70
     Davidson diagonalization with overlap
     ethr =  2.78E-03,  avg # of iterations =  1.1

     total cpu time spent up to now is      434.4 secs

     total energy              =    -427.11251225 Ry
     Harris-Foulkes estimate   =    -426.98909875 Ry
     estimated scf accuracy    <       7.27668470 Ry

     total magnetization       =     2.09 Bohr mag/cell
     absolute magnetization    =     7.06 Bohr mag/cell

     iteration # 13     ecut=    60.00 Ry     beta= 0.70
     Davidson diagonalization with overlap
     ethr =  2.78E-03,  avg # of iterations =  1.0

     negative rho (up, down):  0.000E+00 1.229E-05

     total cpu time spent up to now is      463.8 secs

     total energy              =    -426.88351989 Ry
     Harris-Foulkes estimate   =    -427.21089185 Ry
     estimated scf accuracy    <       6.38647877 Ry

     total magnetization       =     0.52 Bohr mag/cell
     absolute magnetization    =     6.58 Bohr mag/cell

     iteration # 14     ecut=    60.00 Ry     beta= 0.70
     Davidson diagonalization with overlap
     ethr =  2.78E-03,  avg # of iterations =  1.1

     negative rho (up, down):  0.000E+00 2.028E-04

     total cpu time spent up to now is      491.6 secs

     total energy              =    -427.01749717 Ry
     Harris-Foulkes estimate   =    -427.10019075 Ry
     estimated scf accuracy    <       0.55463356 Ry

     total magnetization       =    -0.07 Bohr mag/cell
     absolute magnetization    =     9.70 Bohr mag/cell

     iteration # 15     ecut=    60.00 Ry     beta= 0.70
     Davidson diagonalization with overlap
     ethr =  1.85E-03,  avg # of iterations =  2.4

     negative rho (up, down):  0.000E+00 4.178E-04

     total cpu time spent up to now is      520.3 secs

     total energy              =    -427.10078422 Ry
     Harris-Foulkes estimate   =    -427.09039611 Ry
     estimated scf accuracy    <       0.44429971 Ry

     total magnetization       =    -1.80 Bohr mag/cell
     absolute magnetization    =    10.09 Bohr mag/cell

     iteration # 16     ecut=    60.00 Ry     beta= 0.70
     Davidson diagonalization with overlap
     ethr =  1.48E-03,  avg # of iterations =  1.1

     negative rho (up, down):  0.000E+00 2.748E-02

     total cpu time spent up to now is      547.7 secs

     total energy              =    -427.11781732 Ry
     Harris-Foulkes estimate   =    -427.10453002 Ry
     estimated scf accuracy    <       0.66361498 Ry

     total magnetization       =    -2.13 Bohr mag/cell
     absolute magnetization    =    10.11 Bohr mag/cell

     iteration # 17     ecut=    60.00 Ry     beta= 0.70
     Davidson diagonalization with overlap
     ethr =  1.48E-03,  avg # of iterations =  1.0

     negative rho (up, down):  0.000E+00 4.918E-01

     total cpu time spent up to now is      575.3 secs

     total energy              =    -427.22493133 Ry
     Harris-Foulkes estimate   =    -427.11843632 Ry
     estimated scf accuracy    <       0.60562917 Ry

     total magnetization       =    -2.02 Bohr mag/cell
     absolute magnetization    =    10.09 Bohr mag/cell

     iteration # 18     ecut=    60.00 Ry     beta= 0.70
     Davidson diagonalization with overlap
     ethr =  1.48E-03,  avg # of iterations =  2.3

     total cpu time spent up to now is      606.6 secs

     total energy              =    -426.66691040 Ry
     Harris-Foulkes estimate   =    -427.28540393 Ry
     estimated scf accuracy    <       5.60371668 Ry

     total magnetization       =    -1.93 Bohr mag/cell
     absolute magnetization    =     8.02 Bohr mag/cell

     iteration # 19     ecut=    60.00 Ry     beta= 0.70
     Davidson diagonalization with overlap
     ethr =  1.48E-03,  avg # of iterations =  2.5

     negative rho (up, down):  0.000E+00 2.458E-05

     total cpu time spent up to now is      637.7 secs

     total energy              =    -427.05826262 Ry
     Harris-Foulkes estimate   =    -427.06544030 Ry
     estimated scf accuracy    <       0.22237070 Ry

     total magnetization       =     0.22 Bohr mag/cell
     absolute magnetization    =    10.13 Bohr mag/cell

     iteration # 20     ecut=    60.00 Ry     beta= 0.70
     Davidson diagonalization with overlap
     ethr =  7.41E-04,  avg # of iterations =  1.3

     negative rho (up, down):  0.000E+00 6.758E-05

     total cpu time spent up to now is      666.2 secs

     total energy              =    -427.06408083 Ry
     Harris-Foulkes estimate   =    -427.06468127 Ry
     estimated scf accuracy    <       0.16549504 Ry

     total magnetization       =    -0.50 Bohr mag/cell
     absolute magnetization    =    10.10 Bohr mag/cell

     iteration # 21     ecut=    60.00 Ry     beta= 0.70
     Davidson diagonalization with overlap
     ethr =  5.52E-04,  avg # of iterations =  1.6

     negative rho (up, down):  0.000E+00 2.826E-04

     total cpu time spent up to now is      694.7 secs

     total energy              =    -427.06005843 Ry
     Harris-Foulkes estimate   =    -427.06708956 Ry
     estimated scf accuracy    <       0.21213598 Ry

     total magnetization       =    -0.98 Bohr mag/cell
     absolute magnetization    =    10.06 Bohr mag/cell

     iteration # 22     ecut=    60.00 Ry     beta= 0.70
     Davidson diagonalization with overlap
     ethr =  5.52E-04,  avg # of iterations =  1.5

     negative rho (up, down):  0.000E+00 9.505E-03

     total cpu time spent up to now is      724.3 secs

     total energy              =    -427.00255656 Ry
     Harris-Foulkes estimate   =    -427.06061769 Ry
     estimated scf accuracy    <       0.21850843 Ry

     total magnetization       =    -0.94 Bohr mag/cell
     absolute magnetization    =    10.05 Bohr mag/cell

     iteration # 23     ecut=    60.00 Ry     beta= 0.70
     Davidson diagonalization with overlap
     ethr =  5.52E-04,  avg # of iterations =  2.7

     negative rho (up, down):  0.000E+00 6.758E-05

     total cpu time spent up to now is      755.6 secs

     total energy              =    -426.82568799 Ry
     Harris-Foulkes estimate   =    -427.28142785 Ry
     estimated scf accuracy    <       3.80749573 Ry

     total magnetization       =     2.81 Bohr mag/cell
     absolute magnetization    =     8.68 Bohr mag/cell

     iteration # 24     ecut=    60.00 Ry     beta= 0.70
     Davidson diagonalization with overlap
     ethr =  5.52E-04,  avg # of iterations =  3.0

     negative rho (up, down):  0.000E+00 2.703E-04

     total cpu time spent up to now is      788.3 secs

     total energy              =    -427.10083630 Ry
     Harris-Foulkes estimate   =    -427.10021525 Ry
     estimated scf accuracy    <       0.13853569 Ry

     total magnetization       =    -0.34 Bohr mag/cell
     absolute magnetization    =    10.13 Bohr mag/cell

     iteration # 25     ecut=    60.00 Ry     beta= 0.70
     Davidson diagonalization with overlap
     ethr =  4.62E-04,  avg # of iterations =  1.1

     negative rho (up, down):  0.000E+00 2.212E-04

     total cpu time spent up to now is      816.0 secs

     total energy              =    -427.11211451 Ry
     Harris-Foulkes estimate   =    -427.10115008 Ry
     estimated scf accuracy    <       0.13955462 Ry

     total magnetization       =    -0.33 Bohr mag/cell
     absolute magnetization    =    10.15 Bohr mag/cell

     iteration # 26     ecut=    60.00 Ry     beta= 0.70
     Davidson diagonalization with overlap
     ethr =  4.62E-04,  avg # of iterations =  1.0

     negative rho (up, down):  0.000E+00 5.530E-05

     total cpu time spent up to now is      842.9 secs

     total energy              =    -427.14010395 Ry
     Harris-Foulkes estimate   =    -427.11183896 Ry
     estimated scf accuracy    <       0.12579345 Ry

     total magnetization       =    -0.26 Bohr mag/cell
     absolute magnetization    =    10.14 Bohr mag/cell

     iteration # 27     ecut=    60.00 Ry     beta= 0.70
     Davidson diagonalization with overlap
     ethr =  4.19E-04,  avg # of iterations =  1.9

     negative rho (up, down):  0.000E+00 1.069E-01

     total cpu time spent up to now is      871.1 secs

     total energy              =    -427.31349546 Ry
     Harris-Foulkes estimate   =    -427.15045286 Ry
     estimated scf accuracy    <       0.36436570 Ry

     total magnetization       =    -0.99 Bohr mag/cell
     absolute magnetization    =    10.11 Bohr mag/cell

     iteration # 28     ecut=    60.00 Ry     beta= 0.70
     Davidson diagonalization with overlap
     ethr =  4.19E-04,  avg # of iterations =  8.6

     negative rho (up, down):  0.000E+00 3.072E-05

     total cpu time spent up to now is      914.0 secs

     total energy              =    -426.73302744 Ry
     Harris-Foulkes estimate   =    -427.68343456 Ry
     estimated scf accuracy    <      25.41209385 Ry

     total magnetization       =    -0.24 Bohr mag/cell
     absolute magnetization    =     2.41 Bohr mag/cell

     iteration # 29     ecut=    60.00 Ry     beta= 0.70
     Davidson diagonalization with overlap
     ethr =  4.19E-04,  avg # of iterations =  3.5

     negative rho (up, down):  0.000E+00 1.843E-05

     total cpu time spent up to now is      945.4 secs

     total energy              =    -427.17890380 Ry
     Harris-Foulkes estimate   =    -427.13824944 Ry
     estimated scf accuracy    <       0.67135577 Ry

     total magnetization       =    -0.35 Bohr mag/cell
     absolute magnetization    =     9.57 Bohr mag/cell

     iteration # 30     ecut=    60.00 Ry     beta= 0.70
     Davidson diagonalization with overlap
     ethr =  4.19E-04,  avg # of iterations =  1.0

     negative rho (up, down):  0.000E+00 1.843E-05

     total cpu time spent up to now is      973.0 secs

     total energy              =    -427.15716179 Ry
     Harris-Foulkes estimate   =    -427.18000338 Ry
     estimated scf accuracy    <       0.77535711 Ry

     total magnetization       =    -0.94 Bohr mag/cell
     absolute magnetization    =     9.87 Bohr mag/cell

     iteration # 31     ecut=    60.00 Ry     beta= 0.70
     Davidson diagonalization with overlap
     ethr =  4.19E-04,  avg # of iterations =  1.0

     negative rho (up, down):  0.000E+00 4.055E-04

     total cpu time spent up to now is     1000.5 secs

     total energy              =    -427.00488572 Ry
     Harris-Foulkes estimate   =    -427.15719108 Ry
     estimated scf accuracy    <       0.77285051 Ry

     total magnetization       =    -0.58 Bohr mag/cell
     absolute magnetization    =     9.62 Bohr mag/cell

     iteration # 32     ecut=    60.00 Ry     beta= 0.70
     Davidson diagonalization with overlap
     ethr =  4.19E-04,  avg # of iterations =  4.3

     negative rho (up, down):  0.000E+00 2.316E-03

     total cpu time spent up to now is     1033.2 secs

     total energy              =    -427.06939717 Ry
     Harris-Foulkes estimate   =    -427.04337499 Ry
     estimated scf accuracy    <       0.18720594 Ry

     total magnetization       =     0.15 Bohr mag/cell
     absolute magnetization    =     9.60 Bohr mag/cell

     iteration # 33     ecut=    60.00 Ry     beta= 0.70
     Davidson diagonalization with overlap
     ethr =  4.19E-04,  avg # of iterations =  1.1

     negative rho (up, down):  0.000E+00 6.048E-02

     total cpu time spent up to now is     1060.7 secs

     total energy              =    -426.95618772 Ry
     Harris-Foulkes estimate   =    -427.07763641 Ry
     estimated scf accuracy    <       0.31228672 Ry

     total magnetization       =    -0.09 Bohr mag/cell
     absolute magnetization    =     9.58 Bohr mag/cell

     iteration # 34     ecut=    60.00 Ry     beta= 0.70
     Davidson diagonalization with overlap
     ethr =  4.19E-04,  avg # of iterations =  5.7

     negative rho (up, down):  0.000E+00 2.639E-02

     total cpu time spent up to now is     1097.0 secs

     total energy              =    -427.06176800 Ry
     Harris-Foulkes estimate   =    -427.10501949 Ry
     estimated scf accuracy    <       1.48858416 Ry

     total magnetization       =     2.67 Bohr mag/cell
     absolute magnetization    =     9.55 Bohr mag/cell

     iteration # 35     ecut=    60.00 Ry     beta= 0.70
     Davidson diagonalization with overlap
     ethr =  4.19E-04,  avg # of iterations =  1.0

     negative rho (up, down):  0.000E+00 2.596E-02

     total cpu time spent up to now is     1124.4 secs

     total energy              =    -427.03523309 Ry
     Harris-Foulkes estimate   =    -427.06634843 Ry
     estimated scf accuracy    <       0.90654268 Ry

     total magnetization       =     2.35 Bohr mag/cell
     absolute magnetization    =     9.50 Bohr mag/cell

     iteration # 36     ecut=    60.00 Ry     beta= 0.70
     Davidson diagonalization with overlap
     ethr =  4.19E-04,  avg # of iterations =  1.0

     negative rho (up, down):  0.000E+00 9.053E-03

     total cpu time spent up to now is     1152.6 secs

     total energy              =    -427.03959994 Ry
     Harris-Foulkes estimate   =    -427.04445776 Ry
     estimated scf accuracy    <       0.22073748 Ry

     total magnetization       =     1.37 Bohr mag/cell
     absolute magnetization    =     9.50 Bohr mag/cell

     iteration # 37     ecut=    60.00 Ry     beta= 0.70
     Davidson diagonalization with overlap
     ethr =  4.19E-04,  avg # of iterations =  1.0

     negative rho (up, down):  0.000E+00 1.014E-03

     total cpu time spent up to now is     1180.3 secs

     total energy              =    -427.02708793 Ry
     Harris-Foulkes estimate   =    -427.04161405 Ry
     estimated scf accuracy    <       0.09230923 Ry

     total magnetization       =     1.12 Bohr mag/cell
     absolute magnetization    =     9.53 Bohr mag/cell

     iteration # 38     ecut=    60.00 Ry     beta= 0.70
     Davidson diagonalization with overlap
     ethr =  3.08E-04,  avg # of iterations =  2.0

     negative rho (up, down):  0.000E+00 1.381E-02

     total cpu time spent up to now is     1211.0 secs

     total energy              =    -426.99811361 Ry
     Harris-Foulkes estimate   =    -427.04833302 Ry
     estimated scf accuracy    <       0.16044850 Ry

     total magnetization       =    -0.04 Bohr mag/cell
     absolute magnetization    =     9.63 Bohr mag/cell

     iteration # 39     ecut=    60.00 Ry     beta= 0.70
     Davidson diagonalization with overlap
     ethr =  3.08E-04,  avg # of iterations =  3.7

     negative rho (up, down):  0.000E+00 1.985E-03

     total cpu time spent up to now is     1242.8 secs

     total energy              =    -426.93307355 Ry
     Harris-Foulkes estimate   =    -427.11629053 Ry
     estimated scf accuracy    <       1.59489241 Ry

     total magnetization       =     2.57 Bohr mag/cell
     absolute magnetization    =     9.56 Bohr mag/cell

     iteration # 40     ecut=    60.00 Ry     beta= 0.70
     Davidson diagonalization with overlap
     ethr =  3.08E-04,  avg # of iterations =  3.0

     negative rho (up, down):  0.000E+00 3.711E-03

     total cpu time spent up to now is     1273.4 secs

     total energy              =    -427.04198078 Ry
     Harris-Foulkes estimate   =    -427.04996134 Ry
     estimated scf accuracy    <       0.19683608 Ry

     total magnetization       =    -0.14 Bohr mag/cell
     absolute magnetization    =     9.62 Bohr mag/cell

     iteration # 41     ecut=    60.00 Ry     beta= 0.70
     Davidson diagonalization with overlap
     ethr =  3.08E-04,  avg # of iterations =  1.0

     negative rho (up, down):  0.000E+00 2.273E-03

     total cpu time spent up to now is     1300.2 secs

     total energy              =    -427.04006576 Ry
     Harris-Foulkes estimate   =    -427.04351258 Ry
     estimated scf accuracy    <       0.06024409 Ry

     total magnetization       =     0.19 Bohr mag/cell
     absolute magnetization    =     9.62 Bohr mag/cell

     iteration # 42     ecut=    60.00 Ry     beta= 0.70
     Davidson diagonalization with overlap
     ethr =  2.01E-04,  avg # of iterations =  1.8

     negative rho (up, down):  0.000E+00 2.126E-03

     total cpu time spent up to now is     1328.1 secs

     total energy              =    -427.04141726 Ry
     Harris-Foulkes estimate   =    -427.04146424 Ry
     estimated scf accuracy    <       0.00600521 Ry

     total magnetization       =     0.62 Bohr mag/cell
     absolute magnetization    =     9.61 Bohr mag/cell

     iteration # 43     ecut=    60.00 Ry     beta= 0.70
     Davidson diagonalization with overlap
     ethr =  2.00E-05,  avg # of iterations =  5.3

     negative rho (up, down):  0.000E+00 1.880E-03

     total cpu time spent up to now is     1360.1 secs

     total energy              =    -427.06582855 Ry
     Harris-Foulkes estimate   =    -427.06594504 Ry
     estimated scf accuracy    <       0.01428253 Ry

     total magnetization       =     0.57 Bohr mag/cell
     absolute magnetization    =     9.78 Bohr mag/cell

     iteration # 44     ecut=    60.00 Ry     beta= 0.70
     Davidson diagonalization with overlap
     ethr =  2.00E-05,  avg # of iterations =  1.0

     negative rho (up, down):  0.000E+00 1.954E-03

     total cpu time spent up to now is     1389.1 secs

     total energy              =    -427.06590666 Ry
     Harris-Foulkes estimate   =    -427.06590602 Ry
     estimated scf accuracy    <       0.01523358 Ry

     total magnetization       =     0.60 Bohr mag/cell
     absolute magnetization    =     9.78 Bohr mag/cell

     iteration # 45     ecut=    60.00 Ry     beta= 0.70
     Davidson diagonalization with overlap
     ethr =  2.00E-05,  avg # of iterations =  1.0

     negative rho (up, down):  0.000E+00 1.954E-03

     total cpu time spent up to now is     1418.0 secs

     total energy              =    -427.06598885 Ry
     Harris-Foulkes estimate   =    -427.06592308 Ry
     estimated scf accuracy    <       0.01318740 Ry

     total magnetization       =     0.58 Bohr mag/cell
     absolute magnetization    =     9.78 Bohr mag/cell

     iteration # 46     ecut=    60.00 Ry     beta= 0.70
     Davidson diagonalization with overlap
     ethr =  2.00E-05,  avg # of iterations =  1.3

     negative rho (up, down):  0.000E+00 2.114E-03

     total cpu time spent up to now is     1445.2 secs

     total energy              =    -427.06604311 Ry
     Harris-Foulkes estimate   =    -427.06594220 Ry
     estimated scf accuracy    <       0.01849405 Ry

     total magnetization       =     0.62 Bohr mag/cell
     absolute magnetization    =     9.77 Bohr mag/cell

     iteration # 47     ecut=    60.00 Ry     beta= 0.70
     Davidson diagonalization with overlap
     ethr =  2.00E-05,  avg # of iterations =  1.1

     negative rho (up, down):  0.000E+00 2.028E-03

     total cpu time spent up to now is     1471.4 secs

     total energy              =    -427.06608662 Ry
     Harris-Foulkes estimate   =    -427.06607305 Ry
     estimated scf accuracy    <       0.02176212 Ry

     total magnetization       =     0.65 Bohr mag/cell
     absolute magnetization    =     9.77 Bohr mag/cell

     iteration # 48     ecut=    60.00 Ry     beta= 0.70
     Davidson diagonalization with overlap
     ethr =  2.00E-05,  avg # of iterations =  1.0

     negative rho (up, down):  0.000E+00 2.249E-03

     total cpu time spent up to now is     1498.3 secs

     total energy              =    -427.06565643 Ry
     Harris-Foulkes estimate   =    -427.06609848 Ry
     estimated scf accuracy    <       0.01940158 Ry

     total magnetization       =     0.64 Bohr mag/cell
     absolute magnetization    =     9.77 Bohr mag/cell

     iteration # 49     ecut=    60.00 Ry     beta= 0.70
     Davidson diagonalization with overlap
     ethr =  2.00E-05,  avg # of iterations =  2.2

     negative rho (up, down):  0.000E+00 2.028E-03

     total cpu time spent up to now is     1526.1 secs

     total energy              =    -427.09201159 Ry
     Harris-Foulkes estimate   =    -427.09258715 Ry
     estimated scf accuracy    <       0.00856570 Ry

     total magnetization       =     0.36 Bohr mag/cell
     absolute magnetization    =     9.94 Bohr mag/cell

     iteration # 50     ecut=    60.00 Ry     beta= 0.70
     Davidson diagonalization with overlap
     ethr =  2.00E-05,  avg # of iterations =  1.0

     negative rho (up, down):  0.000E+00 2.150E-03

     total cpu time spent up to now is     1552.3 secs

     total energy              =    -427.09222566 Ry
     Harris-Foulkes estimate   =    -427.09210706 Ry
     estimated scf accuracy    <       0.00813651 Ry

     total magnetization       =     0.34 Bohr mag/cell
     absolute magnetization    =     9.95 Bohr mag/cell

     iteration # 51     ecut=    60.00 Ry     beta= 0.70
     Davidson diagonalization with overlap
     ethr =  2.00E-05,  avg # of iterations =  1.4

     negative rho (up, down):  0.000E+00 2.040E-03

     total cpu time spent up to now is     1579.3 secs

     total energy              =    -427.09210109 Ry
     Harris-Foulkes estimate   =    -427.09228622 Ry
     estimated scf accuracy    <       0.00439191 Ry

     total magnetization       =     0.30 Bohr mag/cell
     absolute magnetization    =     9.95 Bohr mag/cell

     iteration # 52     ecut=    60.00 Ry     beta= 0.70
     Davidson diagonalization with overlap
     ethr =  1.46E-05,  avg # of iterations =  1.2

     negative rho (up, down):  0.000E+00 1.991E-03

     total cpu time spent up to now is     1607.6 secs

     total energy              =    -427.11804552 Ry
     Harris-Foulkes estimate   =    -427.11939156 Ry
     estimated scf accuracy    <       0.00193110 Ry

     total magnetization       =     0.05 Bohr mag/cell
     absolute magnetization    =    10.15 Bohr mag/cell

     iteration # 53     ecut=    60.00 Ry     beta= 0.70
     Davidson diagonalization with overlap
     ethr =  6.44E-06,  avg # of iterations =  1.5

     negative rho (up, down):  0.000E+00 2.138E-03

     total cpu time spent up to now is     1636.2 secs

     total energy              =    -427.11918555 Ry
     Harris-Foulkes estimate   =    -427.11828319 Ry
     estimated scf accuracy    <       0.00614548 Ry

     total magnetization       =     0.11 Bohr mag/cell
     absolute magnetization    =    10.13 Bohr mag/cell

     iteration # 54     ecut=    60.00 Ry     beta= 0.70
     Davidson diagonalization with overlap
     ethr =  6.44E-06,  avg # of iterations =  1.1

     negative rho (up, down):  0.000E+00 2.322E-03

     total cpu time spent up to now is     1663.2 secs

     total energy              =    -427.11963507 Ry
     Harris-Foulkes estimate   =    -427.11948549 Ry
     estimated scf accuracy    <       0.00374001 Ry

     total magnetization       =     0.10 Bohr mag/cell
     absolute magnetization    =    10.15 Bohr mag/cell

     iteration # 55     ecut=    60.00 Ry     beta= 0.70
     Davidson diagonalization with overlap
     ethr =  6.44E-06,  avg # of iterations =  2.0

     negative rho (up, down):  0.000E+00 2.249E-03

     total cpu time spent up to now is     1691.8 secs

     total energy              =    -427.12019896 Ry
     Harris-Foulkes estimate   =    -427.12020078 Ry
     estimated scf accuracy    <       0.00086619 Ry

     total magnetization       =     0.04 Bohr mag/cell
     absolute magnetization    =    10.18 Bohr mag/cell

     iteration # 56     ecut=    60.00 Ry     beta= 0.70
     Davidson diagonalization with overlap
     ethr =  2.89E-06,  avg # of iterations =  1.3

     negative rho (up, down):  0.000E+00 2.347E-03

     total cpu time spent up to now is     1718.0 secs

     total energy              =    -427.12010048 Ry
     Harris-Foulkes estimate   =    -427.12020462 Ry
     estimated scf accuracy    <       0.00081569 Ry

     total magnetization       =     0.04 Bohr mag/cell
     absolute magnetization    =    10.17 Bohr mag/cell

     iteration # 57     ecut=    60.00 Ry     beta= 0.70
     Davidson diagonalization with overlap
     ethr =  2.72E-06,  avg # of iterations =  1.0

     negative rho (up, down):  0.000E+00 2.163E-03

     total cpu time spent up to now is     1744.2 secs

     total energy              =    -427.11981528 Ry
     Harris-Foulkes estimate   =    -427.12012067 Ry
     estimated scf accuracy    <       0.00067850 Ry

     total magnetization       =     0.04 Bohr mag/cell
     absolute magnetization    =    10.18 Bohr mag/cell

     iteration # 58     ecut=    60.00 Ry     beta= 0.70
     Davidson diagonalization with overlap
     ethr =  2.26E-06,  avg # of iterations =  1.9

     negative rho (up, down):  0.000E+00 2.126E-03

     total cpu time spent up to now is     1773.5 secs

     total energy              =    -427.12000451 Ry
     Harris-Foulkes estimate   =    -427.11989200 Ry
     estimated scf accuracy    <       0.00070102 Ry

     total magnetization       =    -0.04 Bohr mag/cell
     absolute magnetization    =    10.18 Bohr mag/cell

     iteration # 59     ecut=    60.00 Ry     beta= 0.70
     Davidson diagonalization with overlap
     ethr =  2.26E-06,  avg # of iterations =  1.5

     negative rho (up, down):  0.000E+00 2.286E-03

     total cpu time spent up to now is     1801.8 secs

     total energy              =    -427.11999934 Ry
     Harris-Foulkes estimate   =    -427.11994201 Ry
     estimated scf accuracy    <       0.00069527 Ry

     total magnetization       =    -0.05 Bohr mag/cell
     absolute magnetization    =    10.18 Bohr mag/cell

     iteration # 60     ecut=    60.00 Ry     beta= 0.70
     Davidson diagonalization with overlap
     ethr =  2.26E-06,  avg # of iterations =  2.0

     negative rho (up, down):  0.000E+00 2.310E-03

     total cpu time spent up to now is     1830.7 secs

     total energy              =    -427.12011286 Ry
     Harris-Foulkes estimate   =    -427.12011271 Ry
     estimated scf accuracy    <       0.00000294 Ry

     total magnetization       =    -0.00 Bohr mag/cell
     absolute magnetization    =    10.18 Bohr mag/cell

     iteration # 61     ecut=    60.00 Ry     beta= 0.70
     Davidson diagonalization with overlap
     ethr =  9.79E-09,  avg # of iterations =  3.7

     negative rho (up, down):  0.000E+00 2.310E-03

     total cpu time spent up to now is     1864.0 secs

     total energy              =    -427.12011422 Ry
     Harris-Foulkes estimate   =    -427.12011415 Ry
     estimated scf accuracy    <       0.00000424 Ry

     total magnetization       =    -0.00 Bohr mag/cell
     absolute magnetization    =    10.18 Bohr mag/cell

     iteration # 62     ecut=    60.00 Ry     beta= 0.70
     Davidson diagonalization with overlap
     ethr =  9.79E-09,  avg # of iterations =  1.0

     negative rho (up, down):  0.000E+00 2.310E-03

     total cpu time spent up to now is     1895.7 secs

     total energy              =    -427.12011482 Ry
     Harris-Foulkes estimate   =    -427.12011424 Ry
     estimated scf accuracy    <       0.00000376 Ry

     total magnetization       =    -0.00 Bohr mag/cell
     absolute magnetization    =    10.18 Bohr mag/cell

     iteration # 63     ecut=    60.00 Ry     beta= 0.70
     Davidson diagonalization with overlap
     ethr =  9.79E-09,  avg # of iterations =  1.5

     negative rho (up, down):  0.000E+00 2.494E-03

     total cpu time spent up to now is     1925.2 secs

     total energy              =    -427.12011481 Ry
     Harris-Foulkes estimate   =    -427.12011509 Ry
     estimated scf accuracy    <       0.00000149 Ry

     total magnetization       =    -0.00 Bohr mag/cell
     absolute magnetization    =    10.18 Bohr mag/cell

     iteration # 64     ecut=    60.00 Ry     beta= 0.70
     Davidson diagonalization with overlap
     ethr =  4.97E-09,  avg # of iterations =  2.9

     negative rho (up, down):  0.000E+00 2.372E-03

     Magnetic moment per site:
     atom:    1    charge:   14.9640    magn:    5.0137    constr:    0.0000
     atom:    2    charge:   14.9645    magn:   -5.0132    constr:    0.0000

     total cpu time spent up to now is     1957.7 secs

     End of self-consistent calculation

 ------ SPIN UP ------------


          k = 0.0625 0.0625 0.0625 ( 37509 PWs)   bands (ev):

   -86.5664 -81.1783 -55.2685 -55.2685 -55.2685 -49.9985 -49.9985 -49.9985
    -7.2623  -7.2623  -7.2610  -7.2610  -7.2610  -4.5798  -3.5464  -2.8268
    -2.8268  -2.8267  -2.8267

          k = 0.0625 0.0625 0.1875 ( 37474 PWs)   bands (ev):

   -86.5664 -81.1783 -55.2685 -55.2685 -55.2685 -49.9985 -49.9985 -49.9985
    -7.2623  -7.2623  -7.2610  -7.2610  -7.2610  -4.5778  -3.5447  -2.8269
    -2.8269  -2.8267  -2.8262

          k = 0.0625 0.0625 0.3125 ( 37486 PWs)   bands (ev):

   -86.5664 -81.1783 -55.2685 -55.2685 -55.2685 -49.9985 -49.9985 -49.9985
    -7.2623  -7.2622  -7.2611  -7.2610  -7.2610  -4.5750  -3.5422  -2.8272
    -2.8272  -2.8266  -2.8255

          k = 0.0625 0.0625 0.4375 ( 37493 PWs)   bands (ev):

   -86.5664 -81.1783 -55.2685 -55.2685 -55.2685 -49.9985 -49.9985 -49.9985
    -7.2623  -7.2622  -7.2611  -7.2611  -7.2610  -4.5731  -3.5405  -2.8274
    -2.8273  -2.8266  -2.8250

          k = 0.0625 0.1875 0.1875 ( 37486 PWs)   bands (ev):

   -86.5664 -81.1783 -55.2685 -55.2685 -55.2685 -49.9985 -49.9985 -49.9985
    -7.2623  -7.2622  -7.2611  -7.2610  -7.2610  -4.5760  -3.5424  -2.8271
    -2.8269  -2.8264  -2.8259

          k = 0.0625 0.1875 0.3125 ( 37437 PWs)   bands (ev):

   -86.5664 -81.1783 -55.2685 -55.2685 -55.2685 -49.9985 -49.9985 -49.9985
    -7.2623  -7.2622  -7.2610  -7.2610  -7.2610  -4.5734  -3.5392  -2.8273
    -2.8271  -2.8263  -2.8253

          k = 0.0625 0.1875 0.4375 ( 37481 PWs)   bands (ev):

   -86.5664 -81.1783 -55.2685 -55.2685 -55.2685 -49.9985 -49.9985 -49.9985
    -7.2623  -7.2622  -7.2611  -7.2611  -7.2610  -4.5716  -3.5369  -2.8275
    -2.8273  -2.8269  -2.8263

          k = 0.0625 0.3125 0.3125 ( 37469 PWs)   bands (ev):

   -86.5664 -81.1783 -55.2685 -55.2685 -55.2685 -49.9985 -49.9985 -49.9985
    -7.2623  -7.2622  -7.2611  -7.2610  -7.2610  -4.5711  -3.5349  -2.8275
    -2.8271  -2.8260  -2.8249

          k = 0.0625 0.3125 0.4375 ( 37432 PWs)   bands (ev):

   -86.5664 -81.1783 -55.2685 -55.2685 -55.2685 -49.9985 -49.9985 -49.9985
    -7.2622  -7.2622  -7.2610  -7.2610  -7.2610  -4.5694  -3.5318  -2.8276
    -2.8272  -2.8259  -2.8245

          k = 0.0625 0.4375 0.4375 ( 37435 PWs)   bands (ev):

   -86.5664 -81.1783 -55.2685 -55.2685 -55.2685 -49.9985 -49.9985 -49.9985
    -7.2622  -7.2622  -7.2610  -7.2610  -7.2610  -4.5679  -3.5282  -2.8277
    -2.8272  -2.8257  -2.8241

          k = 0.1875 0.1875 0.1875 ( 37455 PWs)   bands (ev):

   -86.5664 -81.1783 -55.2685 -55.2685 -55.2685 -49.9985 -49.9985 -49.9985
    -7.2622  -7.2622  -7.2610  -7.2610  -7.2610  -4.5743  -3.5398  -2.8271
    -2.8270  -2.8259  -2.8259

          k = 0.1875 0.1875 0.3125 ( 37447 PWs)   bands (ev):

   -86.5664 -81.1783 -55.2685 -55.2685 -55.2685 -49.9985 -49.9985 -49.9985
    -7.2622  -7.2622  -7.2610  -7.2610  -7.2610  -4.5718  -3.5361  -2.8273
    -2.8272  -2.8259  -2.8252

          k = 0.1875 0.1875 0.4375 ( 37443 PWs)   bands (ev):

   -86.5664 -81.1783 -55.2685 -55.2685 -55.2685 -49.9985 -49.9985 -49.9985
    -7.2622  -7.2622  -7.2611  -7.2610  -7.2610  -4.5701  -3.5335  -2.8275
    -2.8273  -2.8259  -2.8247

          k = 0.1875 0.3125 0.3125 ( 37465 PWs)   bands (ev):

   -86.5664 -81.1783 -55.2685 -55.2685 -55.2685 -49.9985 -49.9985 -49.9985
    -7.2622  -7.2622  -7.2611  -7.2610  -7.2610  -4.5696  -3.5317  -2.8275
    -2.8273  -2.8255  -2.8249

          k = 0.1875 0.3125 0.4375 ( 37477 PWs)   bands (ev):

   -86.5664 -81.1783 -55.2685 -55.2685 -55.2685 -49.9985 -49.9985 -49.9985
    -7.2622  -7.2622  -7.2611  -7.2611  -7.2610  -4.5680  -3.5285  -2.8277
    -2.8274  -2.8273  -2.8255

          k = 0.1875 0.4375 0.4375 ( 37473 PWs)   bands (ev):

   -86.5664 -81.1783 -55.2685 -55.2685 -55.2685 -49.9985 -49.9985 -49.9985
    -7.2622  -7.2622  -7.2611  -7.2610  -7.2610  -4.5665  -3.5250  -2.8278
    -2.8274  -2.8274  -2.8253

          k = 0.3125 0.3125 0.3125 ( 37455 PWs)   bands (ev):

   -86.5664 -81.1783 -55.2685 -55.2685 -55.2685 -49.9985 -49.9985 -49.9985
    -7.2622  -7.2622  -7.2611  -7.2611  -7.2610  -4.5674  -3.5271  -2.8276
    -2.8276  -2.8248  -2.8248

          k = 0.3125 0.3125 0.4375 ( 37474 PWs)   bands (ev):

   -86.5664 -81.1783 -55.2685 -55.2685 -55.2685 -49.9985 -49.9985 -49.9985
    -7.2622  -7.2622  -7.2611  -7.2611  -7.2610  -4.5659  -3.5238  -2.8278
    -2.8276  -2.8275  -2.8248

          k = 0.3125 0.4375 0.4375 ( 37498 PWs)   bands (ev):

   -86.5664 -81.1783 -55.2685 -55.2685 -55.2685 -49.9985 -49.9985 -49.9985
    -7.2622  -7.2622  -7.2611  -7.2611  -7.2611  -4.5645  -3.5204  -2.8279
    -2.8278  -2.8277  -2.8246

          k = 0.4375 0.4375 0.4375 ( 37506 PWs)   bands (ev):

   -86.5664 -81.1783 -55.2685 -55.2685 -55.2685 -49.9985 -49.9985 -49.9985
    -7.2622  -7.2622  -7.2611  -7.2611  -7.2611  -4.5631  -3.5171  -2.8280
    -2.8280  -2.8280  -2.8241

 ------ SPIN DOWN ----------


          k = 0.0625 0.0625 0.0625 ( 37509 PWs)   bands (ev):

   -86.5662 -81.1781 -55.2683 -55.2683 -55.2683 -49.9983 -49.9983 -49.9983
    -7.2620  -7.2620  -7.2611  -7.2611  -7.2611  -4.5798  -3.5465  -2.8269
    -2.8269  -2.8262  -2.8262

          k = 0.0625 0.0625 0.1875 ( 37474 PWs)   bands (ev):

   -86.5662 -81.1781 -55.2683 -55.2683 -55.2683 -49.9983 -49.9983 -49.9982
    -7.2620  -7.2619  -7.2611  -7.2611  -7.2611  -4.5778  -3.5448  -2.8271
    -2.8271  -2.8261  -2.8257

          k = 0.0625 0.0625 0.3125 ( 37486 PWs)   bands (ev):

   -86.5662 -81.1781 -55.2683 -55.2683 -55.2683 -49.9983 -49.9983 -49.9982
    -7.2620  -7.2619  -7.2611  -7.2611  -7.2611  -4.5750  -3.5424  -2.8273
    -2.8273  -2.8261  -2.8250

          k = 0.0625 0.0625 0.4375 ( 37493 PWs)   bands (ev):

   -86.5662 -81.1781 -55.2683 -55.2683 -55.2683 -49.9983 -49.9983 -49.9982
    -7.2620  -7.2619  -7.2611  -7.2611  -7.2611  -4.5730  -3.5407  -2.8275
    -2.8273  -2.8261  -2.8245

          k = 0.0625 0.1875 0.1875 ( 37486 PWs)   bands (ev):

   -86.5662 -81.1781 -55.2683 -55.2683 -55.2683 -49.9983 -49.9983 -49.9982
    -7.2620  -7.2619  -7.2611  -7.2611  -7.2611  -4.5760  -3.5425  -2.8272
    -2.8270  -2.8259  -2.8254

          k = 0.0625 0.1875 0.3125 ( 37437 PWs)   bands (ev):

   -86.5662 -81.1781 -55.2683 -55.2683 -55.2683 -49.9983 -49.9982 -49.9982
    -7.2620  -7.2619  -7.2611  -7.2611  -7.2610  -4.5733  -3.5393  -2.8274
    -2.8271  -2.8258  -2.8248

          k = 0.0625 0.1875 0.4375 ( 37481 PWs)   bands (ev):

   -86.5662 -81.1781 -55.2683 -55.2683 -55.2683 -49.9983 -49.9983 -49.9982
    -7.2620  -7.2619  -7.2611  -7.2611  -7.2611  -4.5715  -3.5371  -2.8276
    -2.8273  -2.8257  -2.8243

          k = 0.0625 0.3125 0.3125 ( 37469 PWs)   bands (ev):

   -86.5662 -81.1781 -55.2683 -55.2683 -55.2683 -49.9983 -49.9982 -49.9982
    -7.2620  -7.2619  -7.2611  -7.2611  -7.2611  -4.5710  -3.5350  -2.8276
    -2.8272  -2.8255  -2.8243

          k = 0.0625 0.3125 0.4375 ( 37432 PWs)   bands (ev):

   -86.5662 -81.1781 -55.2683 -55.2683 -55.2683 -49.9982 -49.9982 -49.9982
    -7.2619  -7.2619  -7.2611  -7.2611  -7.2611  -4.5694  -3.5320  -2.8277
    -2.8274  -2.8254  -2.8239

          k = 0.0625 0.4375 0.4375 ( 37435 PWs)   bands (ev):

   -86.5662 -81.1781 -55.2683 -55.2683 -55.2683 -49.9982 -49.9982 -49.9982
    -7.2619  -7.2619  -7.2611  -7.2611  -7.2610  -4.5678  -3.5283  -2.8278
    -2.8273  -2.8273  -2.8252

          k = 0.1875 0.1875 0.1875 ( 37455 PWs)   bands (ev):

   -86.5662 -81.1781 -55.2683 -55.2683 -55.2683 -49.9982 -49.9982 -49.9982
    -7.2619  -7.2619  -7.2611  -7.2611  -7.2611  -4.5742  -3.5399  -2.8272
    -2.8272  -2.8254  -2.8254

          k = 0.1875 0.1875 0.3125 ( 37447 PWs)   bands (ev):

   -86.5662 -81.1781 -55.2683 -55.2683 -55.2683 -49.9982 -49.9982 -49.9982
    -7.2619  -7.2619  -7.2611  -7.2611  -7.2611  -4.5718  -3.5362  -2.8274
    -2.8272  -2.8253  -2.8247

          k = 0.1875 0.1875 0.4375 ( 37443 PWs)   bands (ev):

   -86.5662 -81.1781 -55.2683 -55.2683 -55.2683 -49.9982 -49.9982 -49.9982
    -7.2619  -7.2619  -7.2611  -7.2611  -7.2611  -4.5700  -3.5336  -2.8277
    -2.8275  -2.8272  -2.8242

          k = 0.1875 0.3125 0.3125 ( 37465 PWs)   bands (ev):

   -86.5662 -81.1781 -55.2683 -55.2683 -55.2683 -49.9982 -49.9982 -49.9982
    -7.2619  -7.2619  -7.2611  -7.2611  -7.2611  -4.5695  -3.5318  -2.8277
    -2.8275  -2.8250  -2.8243

          k = 0.1875 0.3125 0.4375 ( 37477 PWs)   bands (ev):

   -86.5662 -81.1781 -55.2683 -55.2683 -55.2683 -49.9983 -49.9982 -49.9982
    -7.2619  -7.2619  -7.2611  -7.2611  -7.2611  -4.5679  -3.5287  -2.8277
    -2.8276  -2.8249  -2.8239

          k = 0.1875 0.4375 0.4375 ( 37473 PWs)   bands (ev):

   -86.5662 -81.1781 -55.2683 -55.2683 -55.2683 -49.9983 -49.9982 -49.9982
    -7.2619  -7.2619  -7.2611  -7.2611  -7.2611  -4.5664  -3.5251  -2.8279
    -2.8276  -2.8272  -2.8247

          k = 0.3125 0.3125 0.3125 ( 37455 PWs)   bands (ev):

   -86.5662 -81.1781 -55.2683 -55.2683 -55.2683 -49.9982 -49.9982 -49.9982
    -7.2619  -7.2619  -7.2611  -7.2611  -7.2611  -4.5674  -3.5272  -2.8278
    -2.8277  -2.8275  -2.8243

          k = 0.3125 0.3125 0.4375 ( 37474 PWs)   bands (ev):

   -86.5662 -81.1781 -55.2683 -55.2683 -55.2683 -49.9983 -49.9982 -49.9982
    -7.2619  -7.2619  -7.2611  -7.2611  -7.2611  -4.5659  -3.5239  -2.8279
    -2.8277  -2.8243  -2.8238

          k = 0.3125 0.4375 0.4375 ( 37498 PWs)   bands (ev):

   -86.5662 -81.1781 -55.2683 -55.2683 -55.2683 -49.9983 -49.9983 -49.9983
    -7.2619  -7.2619  -7.2611  -7.2611  -7.2611  -4.5645  -3.5205  -2.8281
    -2.8279  -2.8278  -2.8239

          k = 0.4375 0.4375 0.4375 ( 37506 PWs)   bands (ev):

   -86.5662 -81.1781 -55.2683 -55.2683 -55.2683 -49.9983 -49.9983 -49.9983
    -7.2619  -7.2619  -7.2611  -7.2611  -7.2611  -4.5630  -3.5173  -2.8282
    -2.8281  -2.8281  -2.8236

     the Fermi energy is    -3.1739 ev

!    total energy              =    -427.12011568 Ry
     Harris-Foulkes estimate   =    -427.12011578 Ry
     estimated scf accuracy    <       0.00000012 Ry

     The total energy is the sum of the following terms:

     one-electron contribution =    -533.16934967 Ry
     hartree contribution      =     258.72718143 Ry
     xc contribution           =     -55.42487096 Ry
     ewald contribution        =     -97.26259587 Ry
     smearing contrib. (-TS)   =       0.00951939 Ry

     total magnetization       =     0.00 Bohr mag/cell
     absolute magnetization    =    10.18 Bohr mag/cell

     convergence has been achieved in  64 iterations

     Writing output data file mn-9.save/

     init_run     :     12.84s CPU     13.45s WALL (       1 calls)
     electrons    :   1859.27s CPU   1942.93s WALL (       1 calls)

     Called by init_run:
     wfcinit      :      7.79s CPU      7.96s WALL (       1 calls)
     potinit      :      1.49s CPU      1.53s WALL (       1 calls)
     hinit0       :      0.83s CPU      0.83s WALL (       1 calls)

     Called by electrons:
     c_bands      :   1104.08s CPU   1121.73s WALL (      64 calls)
     sum_band     :    556.63s CPU    590.24s WALL (      64 calls)
     v_of_rho     :     60.50s CPU     61.76s WALL (      65 calls)
     newd         :    118.17s CPU    149.28s WALL (      65 calls)
     mix_rho      :     15.25s CPU     15.50s WALL (      64 calls)

     Called by c_bands:
     init_us_2    :     13.77s CPU     13.84s WALL (    5160 calls)
     cegterg      :   1054.70s CPU   1072.23s WALL (    2560 calls)

     Called by sum_band:
     sum_band:bec :      0.07s CPU      0.07s WALL (    2560 calls)
     addusdens    :    340.07s CPU    369.74s WALL (      64 calls)

     Called by *egterg:
     h_psi        :    810.98s CPU    828.30s WALL (    8397 calls)
     s_psi        :     45.88s CPU     45.98s WALL (    8397 calls)
     g_psi        :      3.16s CPU      3.17s WALL (    5797 calls)
     cdiaghg      :      5.52s CPU      5.54s WALL (    8357 calls)

     Called by h_psi:
     h_psi:pot    :    808.55s CPU    825.85s WALL (    8397 calls)
     h_psi:calbec :     67.23s CPU     67.77s WALL (    8397 calls)
     vloc_psi     :    691.99s CPU    708.67s WALL (    8397 calls)
     add_vuspsi   :     49.24s CPU     49.37s WALL (    8397 calls)

     General routines
     calbec       :     95.84s CPU     96.46s WALL (   10957 calls)
     fft          :     49.36s CPU     51.21s WALL (    1619 calls)
     ffts         :      1.66s CPU      1.74s WALL (     258 calls)
     fftw         :    742.65s CPU    760.44s WALL (  270898 calls)
     interpolate  :      5.54s CPU      5.70s WALL (     130 calls)

     Parallel routines
     fft_scatt_xy :     95.51s CPU     97.49s WALL (  272775 calls)
     fft_scatt_yz :    298.29s CPU    308.61s WALL (  272775 calls)

     PWSCF        :  31m13.93s CPU  32m38.61s WALL


   This run was terminated on:  21:44:32  25May2022            

=------------------------------------------------------------------------------=
   JOB DONE.
=------------------------------------------------------------------------------=
