
     Program PWSCF v.6.4.1 starts on 10Mar2022 at 13:32:37 

     This program is part of the open-source Quantum ESPRESSO suite
     for quantum simulation of materials; please cite
         "P. Giannozzi et al., J. Phys.:Condens. Matter 21 395502 (2009);
         "P. Giannozzi et al., J. Phys.:Condens. Matter 29 465901 (2017);
          URL http://www.quantum-espresso.org", 
     in publications or presentations arising from this work. More details at
     http://www.quantum-espresso.org/quote

     Parallel version (MPI), running on     6 processors

     MPI processes distributed on     1 nodes
     R & G space division:  proc/nbgrp/npool/nimage =       6
     Reading input from v-55.in

     Current dimensions of program PWSCF are:
     Max number of different atomic species (ntypx) = 10
     Max number of k-points (npk) =  40000
     Max angular momentum in pseudopotentials (lmaxx) =  3
               file V.pbe-spnl-rrkjus_psl.1.0.0.UPF: wavefunction(s)  3P 3D renormalized
               file V.pbe-spnl-rrkjus_psl.1.0.0.UPF: wavefunction(s)  3P 3D renormalized

     Subspace diagonalization in iterative solution of the eigenvalue problem:
     a serial algorithm will be used

     Message from routine setup:
     DEPRECATED: symmetry with ibrav=0, use correct ibrav instead

     Parallelization info
     --------------------
     sticks:   dense  smooth     PW     G-vecs:    dense   smooth      PW
     Min          96      96     29                 1732     1732     297
     Max          97      97     30                 1734     1734     300
     Sum         577     577    177                10395    10395    1791



     bravais-lattice index     =            0
     lattice parameter (alat)  =       5.7259  a.u.
     unit-cell volume          =     187.7260 (a.u.)^3
     number of atoms/cell      =            2
     number of atomic types    =            2
     number of electrons       =        26.00
     number of Kohn-Sham states=           17
     kinetic-energy cutoff     =      55.0000  Ry
     charge density cutoff     =     220.0000  Ry
     convergence threshold     =      1.0E-06
     mixing beta               =       0.7000
     number of iterations used =            8  plain     mixing
     Exchange-correlation      = PBE ( 1  4  3  4 0 0)

     celldm(1)=   5.725870  celldm(2)=   0.000000  celldm(3)=   0.000000
     celldm(4)=   0.000000  celldm(5)=   0.000000  celldm(6)=   0.000000

     crystal axes: (cart. coord. in units of alat)
               a(1) = (   1.000000   0.000000   0.000000 )  
               a(2) = (   0.000000   1.000000   0.000000 )  
               a(3) = (   0.000000   0.000000   1.000000 )  

     reciprocal axes: (cart. coord. in units 2 pi/alat)
               b(1) = (  1.000000  0.000000  0.000000 )  
               b(2) = (  0.000000  1.000000  0.000000 )  
               b(3) = (  0.000000  0.000000  1.000000 )  


     PseudoPot. # 1 for V  read from file:
     /home/cristian/Escritorio/Proyecto_Grafeno/pseudopotenciales/V.pbe-spnl-rrkjus_psl.1.0.0.UPF
     MD5 check sum: 79b3eb63147daf0b665d9f1bcc691206
     Pseudo is Ultrasoft + core correction, Zval = 13.0
     Generated using "atomic" code by A. Dal Corso v.6.2.2
     Using radial grid of 1181 points,  6 beta functions with: 
                l(1) =   0
                l(2) =   0
                l(3) =   1
                l(4) =   1
                l(5) =   2
                l(6) =   2
     Q(r) pseudized with 0 coefficients 


     PseudoPot. # 2 for V  read from file:
     /home/cristian/Escritorio/Proyecto_Grafeno/pseudopotenciales/V.pbe-spnl-rrkjus_psl.1.0.0.UPF
     MD5 check sum: 79b3eb63147daf0b665d9f1bcc691206
     Pseudo is Ultrasoft + core correction, Zval = 13.0
     Generated using "atomic" code by A. Dal Corso v.6.2.2
     Using radial grid of 1181 points,  6 beta functions with: 
                l(1) =   0
                l(2) =   0
                l(3) =   1
                l(4) =   1
                l(5) =   2
                l(6) =   2
     Q(r) pseudized with 0 coefficients 


     atomic species   valence    mass     pseudopotential
        V1            13.00    50.94150     V ( 1.00)
        V2            13.00    50.94150     V ( 1.00)

     Starting magnetic structure 
     atomic species   magnetization
        V1           0.100
        V2          -0.100

     48 Sym. Ops., with inversion, found



   Cartesian axes

     site n.     atom                  positions (alat units)
         1           V1  tau(   1) = (   0.0000000   0.0000000   0.0000000  )
         2           V2  tau(   2) = (   0.5000000   0.5000000   0.5000000  )

     number of k points=    20  Methfessel-Paxton smearing, width (Ry)=  0.0300
                       cart. coord. in units 2pi/alat
        k(    1) = (   0.0625000   0.0625000   0.0625000), wk =   0.0156250
        k(    2) = (   0.0625000   0.0625000   0.1875000), wk =   0.0468750
        k(    3) = (   0.0625000   0.0625000   0.3125000), wk =   0.0468750
        k(    4) = (   0.0625000   0.0625000   0.4375000), wk =   0.0468750
        k(    5) = (   0.0625000   0.1875000   0.1875000), wk =   0.0468750
        k(    6) = (   0.0625000   0.1875000   0.3125000), wk =   0.0937500
        k(    7) = (   0.0625000   0.1875000   0.4375000), wk =   0.0937500
        k(    8) = (   0.0625000   0.3125000   0.3125000), wk =   0.0468750
        k(    9) = (   0.0625000   0.3125000   0.4375000), wk =   0.0937500
        k(   10) = (   0.0625000   0.4375000   0.4375000), wk =   0.0468750
        k(   11) = (   0.1875000   0.1875000   0.1875000), wk =   0.0156250
        k(   12) = (   0.1875000   0.1875000   0.3125000), wk =   0.0468750
        k(   13) = (   0.1875000   0.1875000   0.4375000), wk =   0.0468750
        k(   14) = (   0.1875000   0.3125000   0.3125000), wk =   0.0468750
        k(   15) = (   0.1875000   0.3125000   0.4375000), wk =   0.0937500
        k(   16) = (   0.1875000   0.4375000   0.4375000), wk =   0.0468750
        k(   17) = (   0.3125000   0.3125000   0.3125000), wk =   0.0156250
        k(   18) = (   0.3125000   0.3125000   0.4375000), wk =   0.0468750
        k(   19) = (   0.3125000   0.4375000   0.4375000), wk =   0.0468750
        k(   20) = (   0.4375000   0.4375000   0.4375000), wk =   0.0156250

     Dense  grid:    10395 G-vectors     FFT dimensions: (  27,  27,  27)

     Estimated max dynamical RAM per process >      11.24 MB

     Estimated total dynamical RAM >      67.41 MB
     Generating pointlists ...
     new r_m :   0.3572 (alat units)  2.0455 (a.u.) for type    1
     new r_m :   0.3572 (alat units)  2.0455 (a.u.) for type    2

     Check: negative core charge=   -0.000026

     Initial potential from superposition of free atoms

     starting charge   25.99818, renormalised to   26.00000
     Starting wfcs are   20 randomized atomic wfcs

     total cpu time spent up to now is        1.8 secs

     Self-consistent Calculation

     iteration #  1     ecut=    55.00 Ry     beta= 0.70
     Davidson diagonalization with overlap
     ethr =  1.00E-02,  avg # of iterations =  2.5

     Threshold (ethr) on eigenvalues was too large:
     Diagonalizing with lowered threshold

     Davidson diagonalization with overlap
     ethr =  5.04E-04,  avg # of iterations =  2.3

     total cpu time spent up to now is        3.0 secs

     total energy              =    -291.02137116 Ry
     Harris-Foulkes estimate   =    -291.10012260 Ry
     estimated scf accuracy    <       0.14144286 Ry

     total magnetization       =     0.00 Bohr mag/cell
     absolute magnetization    =     1.30 Bohr mag/cell

     iteration #  2     ecut=    55.00 Ry     beta= 0.70
     Davidson diagonalization with overlap
     ethr =  5.44E-04,  avg # of iterations =  3.1

     total cpu time spent up to now is        3.8 secs

     total energy              =    -291.04941020 Ry
     Harris-Foulkes estimate   =    -291.11201447 Ry
     estimated scf accuracy    <       0.12440752 Ry

     total magnetization       =    -0.00 Bohr mag/cell
     absolute magnetization    =     1.40 Bohr mag/cell

     iteration #  3     ecut=    55.00 Ry     beta= 0.70
     Davidson diagonalization with overlap
     ethr =  4.78E-04,  avg # of iterations =  3.0

     total cpu time spent up to now is        4.4 secs

     total energy              =    -291.07927533 Ry
     Harris-Foulkes estimate   =    -291.07823753 Ry
     estimated scf accuracy    <       0.00332826 Ry

     total magnetization       =     0.00 Bohr mag/cell
     absolute magnetization    =     1.13 Bohr mag/cell

     iteration #  4     ecut=    55.00 Ry     beta= 0.70
     Davidson diagonalization with overlap
     ethr =  1.28E-05,  avg # of iterations =  4.5

     total cpu time spent up to now is        5.3 secs

     total energy              =    -291.08098331 Ry
     Harris-Foulkes estimate   =    -291.08303819 Ry
     estimated scf accuracy    <       0.01880951 Ry

     total magnetization       =    -0.03 Bohr mag/cell
     absolute magnetization    =     0.77 Bohr mag/cell

     iteration #  5     ecut=    55.00 Ry     beta= 0.70
     Davidson diagonalization with overlap
     ethr =  1.28E-05,  avg # of iterations =  3.6

     total cpu time spent up to now is        5.8 secs

     total energy              =    -291.08283475 Ry
     Harris-Foulkes estimate   =    -291.08212968 Ry
     estimated scf accuracy    <       0.00061150 Ry

     total magnetization       =     0.00 Bohr mag/cell
     absolute magnetization    =     0.73 Bohr mag/cell

     iteration #  6     ecut=    55.00 Ry     beta= 0.70
     Davidson diagonalization with overlap
     ethr =  2.35E-06,  avg # of iterations =  4.2

     total cpu time spent up to now is        6.6 secs

     total energy              =    -291.08240121 Ry
     Harris-Foulkes estimate   =    -291.08338320 Ry
     estimated scf accuracy    <       0.00025226 Ry

     total magnetization       =     0.00 Bohr mag/cell
     absolute magnetization    =     0.52 Bohr mag/cell

     iteration #  7     ecut=    55.00 Ry     beta= 0.70
     Davidson diagonalization with overlap
     ethr =  9.70E-07,  avg # of iterations =  5.2

     total cpu time spent up to now is        7.4 secs

     total energy              =    -291.08459241 Ry
     Harris-Foulkes estimate   =    -291.08460124 Ry
     estimated scf accuracy    <       0.00003681 Ry

     total magnetization       =     0.00 Bohr mag/cell
     absolute magnetization    =     0.09 Bohr mag/cell

     iteration #  8     ecut=    55.00 Ry     beta= 0.70
     Davidson diagonalization with overlap
     ethr =  1.42E-07,  avg # of iterations =  4.2

     Magnetic moment per site:
     atom:    1    charge:   11.3123    magn:    0.0136    constr:    0.0000
     atom:    2    charge:   11.3143    magn:   -0.0122    constr:    0.0000

     total cpu time spent up to now is        8.1 secs

     End of self-consistent calculation

 ------ SPIN UP ------------


          k = 0.0625 0.0625 0.0625 (  1309 PWs)   bands (ev):

   -47.7229 -47.4440 -21.6320 -21.6320 -21.5869 -21.1200 -21.0726 -21.0726
     9.7035  13.2942  13.2942  16.3595  16.3595  16.6227  18.3158  18.3158
    19.0367

          k = 0.0625 0.0625 0.1875 (  1298 PWs)   bands (ev):

   -47.6984 -47.4617 -21.6555 -21.5870 -21.5230 -21.2197 -21.1126 -21.0898
    10.2910  13.5870  13.6039  16.2228  16.2964  16.9471  17.9201  18.2005
    18.5004

          k = 0.0625 0.0625 0.3125 (  1296 PWs)   bands (ev):

   -47.6545 -47.4959 -21.6506 -21.5051 -21.4379 -21.3590 -21.1878 -21.1488
    11.3497  13.8712  14.1921  16.1942  16.2135  17.2808  17.3663  17.4055
    17.8985

          k = 0.0625 0.0625 0.4375 (  1281 PWs)   bands (ev):

   -47.6005 -47.5430 -21.6005 -21.4982 -21.4003 -21.3372 -21.2877 -21.2358
    12.6129  13.6062  14.9832  15.7951  16.4040  16.7835  16.9259  17.2235
    17.9651

          k = 0.0625 0.1875 0.1875 (  1293 PWs)   bands (ev):

   -47.6770 -47.4760 -21.7010 -21.5626 -21.4336 -21.3417 -21.1418 -21.0747
    10.8317  13.7887  13.9512  15.9092  16.1075  17.3093  17.4696  18.0559
    18.3313

          k = 0.0625 0.1875 0.3125 (  1297 PWs)   bands (ev):

   -47.6389 -47.5041 -21.7300 -21.4928 -21.4892 -21.3355 -21.2061 -21.0975
    11.7756  13.9612  14.4927  15.7138  15.9242  16.5712  17.7309  17.7876
    18.0879

          k = 0.0625 0.1875 0.4375 (  1294 PWs)   bands (ev):

   -47.5927 -47.5433 -21.7079 -21.6246 -21.3948 -21.2938 -21.2401 -21.1566
    12.8392  13.6639  15.0768  15.5508  15.8678  16.1182  17.5230  17.5580
    18.6507

          k = 0.0625 0.3125 0.3125 (  1288 PWs)   bands (ev):

   -47.6117 -47.5209 -21.7979 -21.6413 -21.4379 -21.2460 -21.2364 -21.0778
    12.4135  13.7651  15.1996  15.3495  15.8903  15.9342  17.6429  18.1709
    18.5459

          k = 0.0625 0.3125 0.4375 (  1293 PWs)   bands (ev):

   -47.5801 -47.5452 -21.8126 -21.7577 -21.3717 -21.3024 -21.1549 -21.0992
    12.9742  13.4076  15.2374  15.4116  15.9015  16.1474  17.9011  18.1349
    18.8431

          k = 0.0625 0.4375 0.4375 (  1299 PWs)   bands (ev):

   -47.5681 -47.5495 -21.8658 -21.8468 -21.3455 -21.3173 -21.0998 -21.0802
    12.9954  13.1225  14.9915  15.0582  16.8483  17.0379  18.2318  18.3647
    18.6845

          k = 0.1875 0.1875 0.1875 (  1298 PWs)   bands (ev):

   -47.6582 -47.4876 -21.6512 -21.6512 -21.4394 -21.3401 -21.1199 -21.1199
    11.3541  14.1429  14.1429  15.7360  15.7360  16.3627  18.0704  18.2681
    18.2681

          k = 0.1875 0.1875 0.3125 (  1287 PWs)   bands (ev):

   -47.6252 -47.5105 -21.7137 -21.5639 -21.5599 -21.2552 -21.2046 -21.1167
    12.2421  14.3995  14.4752  15.4749  15.5502  15.7980  18.0326  18.2311
    18.5742

          k = 0.1875 0.1875 0.4375 (  1294 PWs)   bands (ev):

   -47.5856 -47.5429 -21.7231 -21.6693 -21.4429 -21.3171 -21.1871 -21.1398
    13.1906  13.9581  14.8518  15.1858  15.6886  15.8352  17.8190  17.8391
    18.7842

          k = 0.1875 0.3125 0.3125 (  1293 PWs)   bands (ev):

   -47.6014 -47.5239 -21.7414 -21.6621 -21.5348 -21.2440 -21.1907 -21.1303
    12.9335  14.2168  15.1447  15.1941  15.2871  15.4122  18.1831  18.2933
    18.5483

          k = 0.1875 0.3125 0.4375 (  1286 PWs)   bands (ev):

   -47.5742 -47.5436 -21.7673 -21.7402 -21.4395 -21.3316 -21.1516 -21.1351
    13.4658  13.8439  15.0471  15.0605  15.6671  15.7163  18.1596  18.2374
    18.7417

          k = 0.1875 0.4375 0.4375 (  1294 PWs)   bands (ev):

   -47.5640 -47.5463 -21.8043 -21.7956 -21.3969 -21.3520 -21.1398 -21.1379
    13.4899  13.5853  14.8903  14.9275  16.2616  16.2834  18.3860  18.4502
    18.7028

          k = 0.3125 0.3125 0.3125 (  1292 PWs)   bands (ev):

   -47.5839 -47.5309 -21.6971 -21.6371 -21.6371 -21.2286 -21.2286 -21.1671
    13.7305  14.5865  14.9991  14.9991  15.0310  15.0310  18.5221  18.5221
    18.6068

          k = 0.3125 0.3125 0.4375 (  1299 PWs)   bands (ev):

   -47.5653 -47.5420 -21.7210 -21.7042 -21.5029 -21.3588 -21.2000 -21.1738
    14.1342  14.2768  14.8885  14.9136  15.2214  15.4365  18.4503  18.4700
    18.7126

          k = 0.3125 0.4375 0.4375 (  1306 PWs)   bands (ev):

   -47.5581 -47.5418 -21.7081 -21.6915 -21.4732 -21.3915 -21.2456 -21.2177
    14.2539  14.2773  14.7918  14.8553  15.4873  15.6025  18.5906  18.6122
    18.7218

          k = 0.4375 0.4375 0.4375 (  1307 PWs)   bands (ev):

   -47.5539 -47.5387 -21.6164 -21.5452 -21.5452 -21.3881 -21.3881 -21.3152
    14.5998  14.8279  14.8279  15.0618  15.0909  15.0909  18.7259  18.7259
    18.7446

 ------ SPIN DOWN ----------


          k = 0.0625 0.0625 0.0625 (  1309 PWs)   bands (ev):

   -47.7221 -47.4432 -21.6312 -21.6312 -21.5861 -21.1192 -21.0718 -21.0718
     9.7045  13.2947  13.2947  16.3608  16.3608  16.6238  18.3160  18.3160
    19.0378

          k = 0.0625 0.0625 0.1875 (  1298 PWs)   bands (ev):

   -47.6976 -47.4609 -21.6547 -21.5862 -21.5223 -21.2189 -21.1119 -21.0890
    10.2920  13.5875  13.6044  16.2240  16.2976  16.9483  17.9204  18.2017
    18.5006

          k = 0.0625 0.0625 0.3125 (  1296 PWs)   bands (ev):

   -47.6538 -47.4951 -21.6498 -21.5043 -21.4372 -21.3581 -21.1870 -21.1480
    11.3506  13.8718  14.1926  16.1953  16.2147  17.2813  17.3673  17.4068
    17.8996

          k = 0.0625 0.0625 0.4375 (  1281 PWs)   bands (ev):

   -47.5999 -47.5422 -21.5997 -21.4974 -21.3996 -21.3364 -21.2868 -21.2349
    12.6138  13.6070  14.9837  15.7957  16.4053  16.7846  16.9269  17.2246
    17.9664

          k = 0.0625 0.1875 0.1875 (  1293 PWs)   bands (ev):

   -47.6762 -47.4753 -21.7002 -21.5618 -21.4329 -21.3408 -21.1410 -21.0740
    10.8327  13.7892  13.9518  15.9104  16.1086  17.3105  17.4708  18.0563
    18.3324

          k = 0.0625 0.1875 0.3125 (  1297 PWs)   bands (ev):

   -47.6382 -47.5033 -21.7292 -21.4921 -21.4884 -21.3347 -21.2053 -21.0967
    11.7766  13.9619  14.4933  15.7150  15.9252  16.5723  17.7319  17.7881
    18.0891

          k = 0.0625 0.1875 0.4375 (  1294 PWs)   bands (ev):

   -47.5921 -47.5424 -21.7072 -21.6238 -21.3941 -21.2929 -21.2393 -21.1558
    12.8401  13.6647  15.0774  15.5517  15.8689  16.1193  17.5239  17.5588
    18.6518

          k = 0.0625 0.3125 0.3125 (  1288 PWs)   bands (ev):

   -47.6111 -47.5200 -21.7972 -21.6405 -21.4372 -21.2452 -21.2355 -21.0770
    12.4145  13.7659  15.2002  15.3507  15.8914  15.9352  17.6437  18.1714
    18.5462

          k = 0.0625 0.3125 0.4375 (  1293 PWs)   bands (ev):

   -47.5795 -47.5442 -21.8118 -21.7570 -21.3710 -21.3015 -21.1541 -21.0984
    12.9751  13.4085  15.2386  15.4127  15.9022  16.1482  17.9018  18.1355
    18.8435

          k = 0.0625 0.4375 0.4375 (  1299 PWs)   bands (ev):

   -47.5677 -47.5484 -21.8650 -21.8460 -21.3451 -21.3161 -21.0990 -21.0794
    12.9964  13.1234  14.9927  15.0594  16.8491  17.0389  18.2324  18.3653
    18.6846

          k = 0.1875 0.1875 0.1875 (  1298 PWs)   bands (ev):

   -47.6575 -47.4868 -21.6504 -21.6504 -21.4388 -21.3392 -21.1191 -21.1191
    11.3552  14.1435  14.1435  15.7372  15.7372  16.3639  18.0715  18.2684
    18.2684

          k = 0.1875 0.1875 0.3125 (  1287 PWs)   bands (ev):

   -47.6245 -47.5097 -21.7129 -21.5631 -21.5591 -21.2544 -21.2038 -21.1160
    12.2431  14.4002  14.4758  15.4760  15.5513  15.7991  18.0331  18.2321
    18.5746

          k = 0.1875 0.1875 0.4375 (  1294 PWs)   bands (ev):

   -47.5850 -47.5420 -21.7224 -21.6685 -21.4422 -21.3163 -21.1863 -21.1390
    13.1916  13.9590  14.8525  15.1867  15.6897  15.8362  17.8196  17.8400
    18.7851

          k = 0.1875 0.3125 0.3125 (  1293 PWs)   bands (ev):

   -47.6007 -47.5230 -21.7406 -21.6614 -21.5340 -21.2432 -21.1899 -21.1295
    12.9345  14.2177  15.1454  15.1953  15.2881  15.4132  18.1839  18.2937
    18.5486

          k = 0.1875 0.3125 0.4375 (  1286 PWs)   bands (ev):

   -47.5737 -47.5426 -21.7665 -21.7395 -21.4388 -21.3308 -21.1508 -21.1343
    13.4668  13.8448  15.0482  15.0615  15.6681  15.7172  18.1602  18.2380
    18.7417

          k = 0.1875 0.4375 0.4375 (  1294 PWs)   bands (ev):

   -47.5636 -47.5452 -21.8035 -21.7949 -21.3963 -21.3510 -21.1390 -21.1371
    13.4909  13.5862  14.8915  14.9287  16.2627  16.2843  18.3865  18.4508
    18.7020

          k = 0.3125 0.3125 0.3125 (  1292 PWs)   bands (ev):

   -47.5832 -47.5300 -21.6964 -21.6363 -21.6363 -21.2278 -21.2278 -21.1663
    13.7316  14.5877  15.0002  15.0002  15.0318  15.0318  18.5224  18.5224
    18.6075

          k = 0.3125 0.3125 0.4375 (  1299 PWs)   bands (ev):

   -47.5649 -47.5410 -21.7203 -21.7035 -21.5022 -21.3579 -21.1993 -21.1730
    14.1353  14.2779  14.8895  14.9146  15.2225  15.4375  18.4507  18.4706
    18.7113

          k = 0.3125 0.4375 0.4375 (  1306 PWs)   bands (ev):

   -47.5577 -47.5407 -21.7073 -21.6907 -21.4725 -21.3906 -21.2448 -21.2170
    14.2550  14.2783  14.7930  14.8564  15.4884  15.6035  18.5908  18.6128
    18.7223

          k = 0.4375 0.4375 0.4375 (  1307 PWs)   bands (ev):

   -47.5535 -47.5375 -21.6156 -21.5444 -21.5444 -21.3873 -21.3873 -21.3144
    14.6010  14.8291  14.8291  15.0629  15.0920  15.0920  18.7258  18.7258
    18.7454

     the Fermi energy is    16.0333 ev

!    total energy              =    -291.08463703 Ry
     Harris-Foulkes estimate   =    -291.08463464 Ry
     estimated scf accuracy    <       0.00000091 Ry

     The total energy is the sum of the following terms:

     one-electron contribution =     -94.99663172 Ry
     hartree contribution      =      59.36602181 Ry
     xc contribution           =     -40.62701892 Ry
     ewald contribution        =    -214.82514743 Ry
     smearing contrib. (-TS)   =      -0.00186077 Ry

     total magnetization       =     0.00 Bohr mag/cell
     absolute magnetization    =     0.03 Bohr mag/cell

     convergence has been achieved in   8 iterations

     Writing output data file v-55.save/

     init_run     :      0.38s CPU      0.38s WALL (       1 calls)
     electrons    :      6.13s CPU      6.27s WALL (       1 calls)

     Called by init_run:
     wfcinit      :      0.20s CPU      0.20s WALL (       1 calls)
     potinit      :      0.02s CPU      0.02s WALL (       1 calls)
     hinit0       :      0.15s CPU      0.15s WALL (       1 calls)

     Called by electrons:
     c_bands      :      5.28s CPU      5.41s WALL (       9 calls)
     sum_band     :      0.72s CPU      0.73s WALL (       9 calls)
     v_of_rho     :      0.05s CPU      0.05s WALL (       9 calls)
     newd         :      0.08s CPU      0.08s WALL (       9 calls)
     mix_rho      :      0.01s CPU      0.01s WALL (       9 calls)

     Called by c_bands:
     init_us_2    :      0.07s CPU      0.07s WALL (     760 calls)
     cegterg      :      5.00s CPU      5.11s WALL (     360 calls)

     Called by sum_band:
     sum_band:bec :      0.01s CPU      0.01s WALL (     360 calls)
     addusdens    :      0.13s CPU      0.13s WALL (       9 calls)

     Called by *egterg:
     h_psi        :      2.89s CPU      2.96s WALL (    1701 calls)
     s_psi        :      0.25s CPU      0.26s WALL (    1701 calls)
     g_psi        :      0.02s CPU      0.02s WALL (    1301 calls)
     cdiaghg      :      0.92s CPU      0.93s WALL (    1621 calls)

     Called by h_psi:
     h_psi:pot    :      2.87s CPU      2.94s WALL (    1701 calls)
     h_psi:calbec :      0.35s CPU      0.36s WALL (    1701 calls)
     vloc_psi     :      2.27s CPU      2.32s WALL (    1701 calls)
     add_vuspsi   :      0.25s CPU      0.25s WALL (    1701 calls)

     General routines
     calbec       :      0.47s CPU      0.48s WALL (    2061 calls)
     fft          :      0.03s CPU      0.03s WALL (     189 calls)
     ffts         :      0.00s CPU      0.00s WALL (      18 calls)
     fftw         :      2.43s CPU      2.48s WALL (   40886 calls)

     Parallel routines
     fft_scatt_xy :      0.20s CPU      0.20s WALL (   41093 calls)
     fft_scatt_yz :      0.92s CPU      0.94s WALL (   41093 calls)

     PWSCF        :      8.01s CPU      8.16s WALL


   This run was terminated on:  13:32:45  10Mar2022            

=------------------------------------------------------------------------------=
   JOB DONE.
=------------------------------------------------------------------------------=
