
     Program PWSCF v.6.4.1 starts on 10Mar2022 at 13:33:45 

     This program is part of the open-source Quantum ESPRESSO suite
     for quantum simulation of materials; please cite
         "P. Giannozzi et al., J. Phys.:Condens. Matter 21 395502 (2009);
         "P. Giannozzi et al., J. Phys.:Condens. Matter 29 465901 (2017);
          URL http://www.quantum-espresso.org", 
     in publications or presentations arising from this work. More details at
     http://www.quantum-espresso.org/quote

     Parallel version (MPI), running on     6 processors

     MPI processes distributed on     1 nodes
     R & G space division:  proc/nbgrp/npool/nimage =       6
     Reading input from v-80.in

     Current dimensions of program PWSCF are:
     Max number of different atomic species (ntypx) = 10
     Max number of k-points (npk) =  40000
     Max angular momentum in pseudopotentials (lmaxx) =  3
               file V.pbe-spnl-rrkjus_psl.1.0.0.UPF: wavefunction(s)  3P 3D renormalized
               file V.pbe-spnl-rrkjus_psl.1.0.0.UPF: wavefunction(s)  3P 3D renormalized

     Subspace diagonalization in iterative solution of the eigenvalue problem:
     a serial algorithm will be used

     Message from routine setup:
     DEPRECATED: symmetry with ibrav=0, use correct ibrav instead

     Parallelization info
     --------------------
     sticks:   dense  smooth     PW     G-vecs:    dense   smooth      PW
     Min         139     139     40                 3006     3006     490
     Max         142     142     41                 3007     3007     495
     Sum         845     845    241                18037    18037    2945



     bravais-lattice index     =            0
     lattice parameter (alat)  =       5.7259  a.u.
     unit-cell volume          =     187.7260 (a.u.)^3
     number of atoms/cell      =            2
     number of atomic types    =            2
     number of electrons       =        26.00
     number of Kohn-Sham states=           17
     kinetic-energy cutoff     =      80.0000  Ry
     charge density cutoff     =     320.0000  Ry
     convergence threshold     =      1.0E-06
     mixing beta               =       0.7000
     number of iterations used =            8  plain     mixing
     Exchange-correlation      = PBE ( 1  4  3  4 0 0)

     celldm(1)=   5.725870  celldm(2)=   0.000000  celldm(3)=   0.000000
     celldm(4)=   0.000000  celldm(5)=   0.000000  celldm(6)=   0.000000

     crystal axes: (cart. coord. in units of alat)
               a(1) = (   1.000000   0.000000   0.000000 )  
               a(2) = (   0.000000   1.000000   0.000000 )  
               a(3) = (   0.000000   0.000000   1.000000 )  

     reciprocal axes: (cart. coord. in units 2 pi/alat)
               b(1) = (  1.000000  0.000000  0.000000 )  
               b(2) = (  0.000000  1.000000  0.000000 )  
               b(3) = (  0.000000  0.000000  1.000000 )  


     PseudoPot. # 1 for V  read from file:
     /home/cristian/Escritorio/Proyecto_Grafeno/pseudopotenciales/V.pbe-spnl-rrkjus_psl.1.0.0.UPF
     MD5 check sum: 79b3eb63147daf0b665d9f1bcc691206
     Pseudo is Ultrasoft + core correction, Zval = 13.0
     Generated using "atomic" code by A. Dal Corso v.6.2.2
     Using radial grid of 1181 points,  6 beta functions with: 
                l(1) =   0
                l(2) =   0
                l(3) =   1
                l(4) =   1
                l(5) =   2
                l(6) =   2
     Q(r) pseudized with 0 coefficients 


     PseudoPot. # 2 for V  read from file:
     /home/cristian/Escritorio/Proyecto_Grafeno/pseudopotenciales/V.pbe-spnl-rrkjus_psl.1.0.0.UPF
     MD5 check sum: 79b3eb63147daf0b665d9f1bcc691206
     Pseudo is Ultrasoft + core correction, Zval = 13.0
     Generated using "atomic" code by A. Dal Corso v.6.2.2
     Using radial grid of 1181 points,  6 beta functions with: 
                l(1) =   0
                l(2) =   0
                l(3) =   1
                l(4) =   1
                l(5) =   2
                l(6) =   2
     Q(r) pseudized with 0 coefficients 


     atomic species   valence    mass     pseudopotential
        V1            13.00    50.94150     V ( 1.00)
        V2            13.00    50.94150     V ( 1.00)

     Starting magnetic structure 
     atomic species   magnetization
        V1           0.100
        V2          -0.100

     48 Sym. Ops., with inversion, found



   Cartesian axes

     site n.     atom                  positions (alat units)
         1           V1  tau(   1) = (   0.0000000   0.0000000   0.0000000  )
         2           V2  tau(   2) = (   0.5000000   0.5000000   0.5000000  )

     number of k points=    20  Methfessel-Paxton smearing, width (Ry)=  0.0300
                       cart. coord. in units 2pi/alat
        k(    1) = (   0.0625000   0.0625000   0.0625000), wk =   0.0156250
        k(    2) = (   0.0625000   0.0625000   0.1875000), wk =   0.0468750
        k(    3) = (   0.0625000   0.0625000   0.3125000), wk =   0.0468750
        k(    4) = (   0.0625000   0.0625000   0.4375000), wk =   0.0468750
        k(    5) = (   0.0625000   0.1875000   0.1875000), wk =   0.0468750
        k(    6) = (   0.0625000   0.1875000   0.3125000), wk =   0.0937500
        k(    7) = (   0.0625000   0.1875000   0.4375000), wk =   0.0937500
        k(    8) = (   0.0625000   0.3125000   0.3125000), wk =   0.0468750
        k(    9) = (   0.0625000   0.3125000   0.4375000), wk =   0.0937500
        k(   10) = (   0.0625000   0.4375000   0.4375000), wk =   0.0468750
        k(   11) = (   0.1875000   0.1875000   0.1875000), wk =   0.0156250
        k(   12) = (   0.1875000   0.1875000   0.3125000), wk =   0.0468750
        k(   13) = (   0.1875000   0.1875000   0.4375000), wk =   0.0468750
        k(   14) = (   0.1875000   0.3125000   0.3125000), wk =   0.0468750
        k(   15) = (   0.1875000   0.3125000   0.4375000), wk =   0.0937500
        k(   16) = (   0.1875000   0.4375000   0.4375000), wk =   0.0468750
        k(   17) = (   0.3125000   0.3125000   0.3125000), wk =   0.0156250
        k(   18) = (   0.3125000   0.3125000   0.4375000), wk =   0.0468750
        k(   19) = (   0.3125000   0.4375000   0.4375000), wk =   0.0468750
        k(   20) = (   0.4375000   0.4375000   0.4375000), wk =   0.0156250

     Dense  grid:    18037 G-vectors     FFT dimensions: (  36,  36,  36)

     Estimated max dynamical RAM per process >      18.56 MB

     Estimated total dynamical RAM >     111.35 MB
     Generating pointlists ...
     new r_m :   0.3572 (alat units)  2.0455 (a.u.) for type    1
     new r_m :   0.3572 (alat units)  2.0455 (a.u.) for type    2

     Check: negative core charge=   -0.000017

     Initial potential from superposition of free atoms

     starting charge   25.99818, renormalised to   26.00000
     Starting wfcs are   20 randomized atomic wfcs

     total cpu time spent up to now is        2.0 secs

     Self-consistent Calculation

     iteration #  1     ecut=    80.00 Ry     beta= 0.70
     Davidson diagonalization with overlap
     ethr =  1.00E-02,  avg # of iterations =  2.5

     Threshold (ethr) on eigenvalues was too large:
     Diagonalizing with lowered threshold

     Davidson diagonalization with overlap
     ethr =  4.98E-04,  avg # of iterations =  2.3

     total cpu time spent up to now is        4.1 secs

     total energy              =    -291.03109747 Ry
     Harris-Foulkes estimate   =    -291.11003729 Ry
     estimated scf accuracy    <       0.14109736 Ry

     total magnetization       =     0.00 Bohr mag/cell
     absolute magnetization    =     1.30 Bohr mag/cell

     iteration #  2     ecut=    80.00 Ry     beta= 0.70
     Davidson diagonalization with overlap
     ethr =  5.43E-04,  avg # of iterations =  3.1

     total cpu time spent up to now is        5.5 secs

     total energy              =    -291.05916406 Ry
     Harris-Foulkes estimate   =    -291.12151599 Ry
     estimated scf accuracy    <       0.12392826 Ry

     total magnetization       =     0.00 Bohr mag/cell
     absolute magnetization    =     1.40 Bohr mag/cell

     iteration #  3     ecut=    80.00 Ry     beta= 0.70
     Davidson diagonalization with overlap
     ethr =  4.77E-04,  avg # of iterations =  3.0

     total cpu time spent up to now is        6.7 secs

     total energy              =    -291.08892536 Ry
     Harris-Foulkes estimate   =    -291.08788674 Ry
     estimated scf accuracy    <       0.00326030 Ry

     total magnetization       =    -0.00 Bohr mag/cell
     absolute magnetization    =     1.13 Bohr mag/cell

     iteration #  4     ecut=    80.00 Ry     beta= 0.70
     Davidson diagonalization with overlap
     ethr =  1.25E-05,  avg # of iterations =  4.6

     total cpu time spent up to now is        8.1 secs

     total energy              =    -291.09158474 Ry
     Harris-Foulkes estimate   =    -291.09180039 Ry
     estimated scf accuracy    <       0.00348150 Ry

     total magnetization       =     0.01 Bohr mag/cell
     absolute magnetization    =     0.76 Bohr mag/cell

     iteration #  5     ecut=    80.00 Ry     beta= 0.70
     Davidson diagonalization with overlap
     ethr =  1.25E-05,  avg # of iterations =  1.0

     total cpu time spent up to now is        9.0 secs

     total energy              =    -291.09224676 Ry
     Harris-Foulkes estimate   =    -291.09173049 Ry
     estimated scf accuracy    <       0.00070865 Ry

     total magnetization       =    -0.00 Bohr mag/cell
     absolute magnetization    =     0.74 Bohr mag/cell

     iteration #  6     ecut=    80.00 Ry     beta= 0.70
     Davidson diagonalization with overlap
     ethr =  2.73E-06,  avg # of iterations =  4.3

     total cpu time spent up to now is       10.3 secs

     total energy              =    -291.09198993 Ry
     Harris-Foulkes estimate   =    -291.09336373 Ry
     estimated scf accuracy    <       0.00075115 Ry

     total magnetization       =    -0.01 Bohr mag/cell
     absolute magnetization    =     0.45 Bohr mag/cell

     iteration #  7     ecut=    80.00 Ry     beta= 0.70
     Davidson diagonalization with overlap
     ethr =  2.73E-06,  avg # of iterations =  4.9

     total cpu time spent up to now is       11.7 secs

     total energy              =    -291.09419580 Ry
     Harris-Foulkes estimate   =    -291.09431148 Ry
     estimated scf accuracy    <       0.00104415 Ry

     total magnetization       =    -0.00 Bohr mag/cell
     absolute magnetization    =     0.02 Bohr mag/cell

     iteration #  8     ecut=    80.00 Ry     beta= 0.70
     Davidson diagonalization with overlap
     ethr =  2.73E-06,  avg # of iterations =  1.4

     total cpu time spent up to now is       12.6 secs

     total energy              =    -291.09424293 Ry
     Harris-Foulkes estimate   =    -291.09424715 Ry
     estimated scf accuracy    <       0.00005492 Ry

     total magnetization       =    -0.00 Bohr mag/cell
     absolute magnetization    =     0.03 Bohr mag/cell

     iteration #  9     ecut=    80.00 Ry     beta= 0.70
     Davidson diagonalization with overlap
     ethr =  2.11E-07,  avg # of iterations =  4.8

     total cpu time spent up to now is       13.8 secs

     total energy              =    -291.09426827 Ry
     Harris-Foulkes estimate   =    -291.09427789 Ry
     estimated scf accuracy    <       0.00009534 Ry

     total magnetization       =    -0.01 Bohr mag/cell
     absolute magnetization    =     0.02 Bohr mag/cell

     iteration # 10     ecut=    80.00 Ry     beta= 0.70
     Davidson diagonalization with overlap
     ethr =  2.11E-07,  avg # of iterations =  1.8

     total cpu time spent up to now is       14.8 secs

     total energy              =    -291.09427177 Ry
     Harris-Foulkes estimate   =    -291.09427317 Ry
     estimated scf accuracy    <       0.00001188 Ry

     total magnetization       =    -0.00 Bohr mag/cell
     absolute magnetization    =     0.00 Bohr mag/cell

     iteration # 11     ecut=    80.00 Ry     beta= 0.70
     Davidson diagonalization with overlap
     ethr =  4.57E-08,  avg # of iterations =  2.7

     Magnetic moment per site:
     atom:    1    charge:   11.3143    magn:    0.0015    constr:    0.0000
     atom:    2    charge:   11.3138    magn:   -0.0031    constr:    0.0000

     total cpu time spent up to now is       15.7 secs

     End of self-consistent calculation

 ------ SPIN UP ------------


          k = 0.0625 0.0625 0.0625 (  2265 PWs)   bands (ev):

   -47.7185 -47.4400 -21.6312 -21.6312 -21.5866 -21.1200 -21.0728 -21.0728
     9.7040  13.2914  13.2914  16.3572  16.3572  16.6203  18.3127  18.3127
    19.0354

          k = 0.0625 0.0625 0.1875 (  2270 PWs)   bands (ev):

   -47.6940 -47.4577 -21.6551 -21.5865 -21.5227 -21.2199 -21.1129 -21.0901
    10.2915  13.5845  13.6011  16.2204  16.2940  16.9448  17.9170  18.1991
    18.4972

          k = 0.0625 0.0625 0.3125 (  2266 PWs)   bands (ev):

   -47.6501 -47.4920 -21.6501 -21.5047 -21.4372 -21.3596 -21.1880 -21.1490
    11.3503  13.8697  14.1893  16.1920  16.2113  17.2780  17.3653  17.4028
    17.8971

          k = 0.0625 0.0625 0.4375 (  2270 PWs)   bands (ev):

   -47.5955 -47.5398 -21.6001 -21.4983 -21.3997 -21.3373 -21.2884 -21.2362
    12.6133  13.6058  14.9804  15.7923  16.4020  16.7817  16.9237  17.2217
    17.9633

          k = 0.0625 0.1875 0.1875 (  2278 PWs)   bands (ev):

   -47.6726 -47.4721 -21.7006 -21.5622 -21.4331 -21.3424 -21.1420 -21.0749
    10.8322  13.7861  13.9489  15.9068  16.1053  17.3080  17.4673  18.0529
    18.3297

          k = 0.0625 0.1875 0.3125 (  2267 PWs)   bands (ev):

   -47.6344 -47.5003 -21.7296 -21.4920 -21.4893 -21.3357 -21.2063 -21.0976
    11.7761  13.9593  14.4908  15.7114  15.9222  16.5695  17.7292  17.7848
    18.0861

          k = 0.0625 0.1875 0.4375 (  2259 PWs)   bands (ev):

   -47.5875 -47.5402 -21.7075 -21.6243 -21.3942 -21.2944 -21.2403 -21.1568
    12.8392  13.6630  15.0749  15.5486  15.8658  16.1162  17.5210  17.5556
    18.6490

          k = 0.0625 0.3125 0.3125 (  2270 PWs)   bands (ev):

   -47.6070 -47.5173 -21.7976 -21.6410 -21.4376 -21.2462 -21.2369 -21.0780
    12.4134  13.7632  15.1984  15.3470  15.8881  15.9333  17.6406  18.1680
    18.5430

          k = 0.0625 0.3125 0.4375 (  2270 PWs)   bands (ev):

   -47.5743 -47.5425 -21.8121 -21.7574 -21.3708 -21.3032 -21.1551 -21.0993
    12.9731  13.4059  15.2349  15.4093  15.9009  16.1471  17.8987  18.1323
    18.8406

          k = 0.0625 0.4375 0.4375 (  2259 PWs)   bands (ev):

   -47.5606 -47.5487 -21.8654 -21.8464 -21.3434 -21.3193 -21.0999 -21.0803
    12.9938  13.1206  14.9891  15.0557  16.8488  17.0394  18.2294  18.3620
    18.6824

          k = 0.1875 0.1875 0.1875 (  2268 PWs)   bands (ev):

   -47.6538 -47.4837 -21.6508 -21.6508 -21.4389 -21.3405 -21.1202 -21.1202
    11.3547  14.1408  14.1408  15.7336  15.7336  16.3613  18.0687  18.2650
    18.2650

          k = 0.1875 0.1875 0.3125 (  2264 PWs)   bands (ev):

   -47.6205 -47.5068 -21.7133 -21.5637 -21.5596 -21.2555 -21.2049 -21.1170
    12.2426  14.3981  14.4732  15.4726  15.5479  15.7960  18.0296  18.2293
    18.5713

          k = 0.1875 0.1875 0.4375 (  2261 PWs)   bands (ev):

   -47.5802 -47.5400 -21.7228 -21.6690 -21.4423 -21.3176 -21.1873 -21.1400
    13.1905  13.9572  14.8499  15.1837  15.6868  15.8334  17.8165  17.8369
    18.7816

          k = 0.1875 0.3125 0.3125 (  2258 PWs)   bands (ev):

   -47.5965 -47.5204 -21.7408 -21.6619 -21.5343 -21.2443 -21.1910 -21.1305
    12.9335  14.2152  15.1437  15.1917  15.2850  15.4106  18.1811  18.2903
    18.5455

          k = 0.1875 0.3125 0.4375 (  2271 PWs)   bands (ev):

   -47.5683 -47.5412 -21.7670 -21.7399 -21.4391 -21.3322 -21.1520 -21.1352
    13.4649  13.8423  15.0448  15.0585  15.6666  15.7155  18.1571  18.2346
    18.7389

          k = 0.1875 0.4375 0.4375 (  2280 PWs)   bands (ev):

   -47.5562 -47.5458 -21.8039 -21.7952 -21.3957 -21.3533 -21.1400 -21.1380
    13.4884  13.5836  14.8879  14.9252  16.2622  16.2837  18.3839  18.4470
    18.6997

          k = 0.3125 0.3125 0.3125 (  2278 PWs)   bands (ev):

   -47.5787 -47.5277 -21.6969 -21.6367 -21.6367 -21.2287 -21.2287 -21.1674
    13.7309  14.5842  14.9970  14.9970  15.0300  15.0300  18.5196  18.5197
    18.6043

          k = 0.3125 0.3125 0.4375 (  2273 PWs)   bands (ev):

   -47.5587 -47.5403 -21.7206 -21.7039 -21.5023 -21.3589 -21.2002 -21.1740
    14.1334  14.2750  14.8870  14.9125  15.2204  15.4358  18.4497  18.4654
    18.7099

          k = 0.3125 0.4375 0.4375 (  2281 PWs)   bands (ev):

   -47.5496 -47.5420 -21.7077 -21.6909 -21.4723 -21.3921 -21.2456 -21.2177
    14.2524  14.2761  14.7899  14.8538  15.4872  15.6024  18.5907  18.6067
    18.7222

          k = 0.4375 0.4375 0.4375 (  2287 PWs)   bands (ev):

   -47.5446 -47.5397 -21.6159 -21.5446 -21.5446 -21.3881 -21.3881 -21.3154
    14.5982  14.8268  14.8268  15.0615  15.0902  15.0902  18.7306  18.7307
    18.7346

 ------ SPIN DOWN ----------


          k = 0.0625 0.0625 0.0625 (  2265 PWs)   bands (ev):

   -47.7194 -47.4410 -21.6322 -21.6322 -21.5876 -21.1210 -21.0738 -21.0738
     9.7031  13.2908  13.2908  16.3559  16.3559  16.6190  18.3122  18.3122
    19.0342

          k = 0.0625 0.0625 0.1875 (  2270 PWs)   bands (ev):

   -47.6949 -47.4587 -21.6560 -21.5874 -21.5237 -21.2209 -21.1138 -21.0910
    10.2907  13.5839  13.6005  16.2192  16.2928  16.9436  17.9165  18.1979
    18.4967

          k = 0.0625 0.0625 0.3125 (  2266 PWs)   bands (ev):

   -47.6510 -47.4930 -21.6511 -21.5056 -21.4382 -21.3606 -21.1890 -21.1499
    11.3494  13.8691  14.1887  16.1909  16.2101  17.2773  17.3642  17.4015
    17.8959

          k = 0.0625 0.0625 0.4375 (  2270 PWs)   bands (ev):

   -47.5963 -47.5408 -21.6011 -21.4992 -21.4006 -21.3383 -21.2894 -21.2372
    12.6124  13.6051  14.9799  15.7916  16.4008  16.7806  16.9227  17.2205
    17.9620

          k = 0.0625 0.1875 0.1875 (  2278 PWs)   bands (ev):

   -47.6735 -47.4731 -21.7015 -21.5632 -21.4340 -21.3434 -21.1430 -21.0759
    10.8314  13.7855  13.9483  15.9055  16.1042  17.3068  17.4661  18.0523
    18.3286

          k = 0.0625 0.1875 0.3125 (  2267 PWs)   bands (ev):

   -47.6353 -47.5013 -21.7305 -21.4929 -21.4903 -21.3367 -21.2073 -21.0986
    11.7753  13.9586  14.4902  15.7103  15.9212  16.5683  17.7281  17.7841
    18.0849

          k = 0.0625 0.1875 0.4375 (  2259 PWs)   bands (ev):

   -47.5883 -47.5412 -21.7084 -21.6252 -21.3951 -21.2954 -21.2412 -21.1578
    12.8383  13.6622  15.0743  15.5478  15.8647  16.1150  17.5200  17.5547
    18.6479

          k = 0.0625 0.3125 0.3125 (  2270 PWs)   bands (ev):

   -47.6079 -47.5182 -21.7985 -21.6420 -21.4385 -21.2472 -21.2378 -21.0790
    12.4125  13.7624  15.1978  15.3458  15.8870  15.9324  17.6397  18.1673
    18.5425

          k = 0.0625 0.3125 0.4375 (  2270 PWs)   bands (ev):

   -47.5751 -47.5436 -21.8130 -21.7584 -21.3717 -21.3042 -21.1561 -21.1003
    12.9722  13.4051  15.2338  15.4081  15.9002  16.1463  17.8979  18.1315
    18.8400

          k = 0.0625 0.4375 0.4375 (  2259 PWs)   bands (ev):

   -47.5612 -47.5499 -21.8663 -21.8473 -21.3442 -21.3204 -21.1008 -21.0812
    12.9929  13.1197  14.9879  15.0545  16.8481  17.0385  18.2286  18.3612
    18.6813

          k = 0.1875 0.1875 0.1875 (  2268 PWs)   bands (ev):

   -47.6547 -47.4847 -21.6517 -21.6517 -21.4398 -21.3415 -21.1211 -21.1211
    11.3539  14.1402  14.1402  15.7325  15.7325  16.3601  18.0675  18.2645
    18.2645

          k = 0.1875 0.1875 0.3125 (  2264 PWs)   bands (ev):

   -47.6214 -47.5077 -21.7142 -21.5646 -21.5606 -21.2565 -21.2058 -21.1179
    12.2417  14.3973  14.4725  15.4716  15.5467  15.7949  18.0290  18.2282
    18.5707

          k = 0.1875 0.1875 0.4375 (  2261 PWs)   bands (ev):

   -47.5810 -47.5410 -21.7237 -21.6700 -21.4432 -21.3186 -21.1882 -21.1409
    13.1896  13.9564  14.8491  15.1828  15.6856  15.8324  17.8157  17.8359
    18.7812

          k = 0.1875 0.3125 0.3125 (  2258 PWs)   bands (ev):

   -47.5974 -47.5213 -21.7418 -21.6629 -21.5352 -21.2453 -21.1920 -21.1315
    12.9326  14.2144  15.1430  15.1905  15.2839  15.4096  18.1802  18.2896
    18.5449

          k = 0.1875 0.3125 0.4375 (  2271 PWs)   bands (ev):

   -47.5691 -47.5423 -21.7680 -21.7409 -21.4400 -21.3332 -21.1529 -21.1362
    13.4640  13.8413  15.0437  15.0575  15.6657  15.7146  18.1563  18.2338
    18.7386

          k = 0.1875 0.4375 0.4375 (  2280 PWs)   bands (ev):

   -47.5567 -47.5471 -21.8048 -21.7962 -21.3966 -21.3543 -21.1409 -21.1389
    13.4874  13.5826  14.8867  14.9240  16.2612  16.2828  18.3832  18.4463
    18.6998

          k = 0.3125 0.3125 0.3125 (  2278 PWs)   bands (ev):

   -47.5796 -47.5287 -21.6979 -21.6377 -21.6377 -21.2297 -21.2297 -21.1683
    13.7300  14.5831  14.9959  14.9959  15.0291  15.0291  18.5191  18.5193
    18.6034

          k = 0.3125 0.3125 0.4375 (  2273 PWs)   bands (ev):

   -47.5594 -47.5414 -21.7215 -21.7049 -21.5032 -21.3599 -21.2011 -21.1749
    14.1324  14.2739  14.8860  14.9115  15.2193  15.4348  18.4490  18.4647
    18.7109

          k = 0.3125 0.4375 0.4375 (  2281 PWs)   bands (ev):

   -47.5500 -47.5434 -21.7086 -21.6918 -21.4732 -21.3931 -21.2466 -21.2187
    14.2513  14.2750  14.7887  14.8527  15.4862  15.6014  18.5902  18.6060
    18.7240

          k = 0.4375 0.4375 0.4375 (  2287 PWs)   bands (ev):

   -47.5445 -47.5416 -21.6168 -21.5455 -21.5455 -21.3891 -21.3891 -21.3164
    14.5971  14.8257  14.8257  15.0604  15.0892  15.0892  18.7310  18.7311
    18.7332

     the Fermi energy is    16.0307 ev

!    total energy              =    -291.09427315 Ry
     Harris-Foulkes estimate   =    -291.09427322 Ry
     estimated scf accuracy    <       0.00000012 Ry

     The total energy is the sum of the following terms:

     one-electron contribution =     -95.00954135 Ry
     hartree contribution      =      59.37029734 Ry
     xc contribution           =     -40.62802302 Ry
     ewald contribution        =    -214.82514739 Ry
     smearing contrib. (-TS)   =      -0.00185874 Ry

     total magnetization       =    -0.00 Bohr mag/cell
     absolute magnetization    =     0.01 Bohr mag/cell

     convergence has been achieved in  11 iterations

     Writing output data file v-80.save/

     init_run     :      0.61s CPU      0.62s WALL (       1 calls)
     electrons    :     13.32s CPU     13.68s WALL (       1 calls)

     Called by init_run:
     wfcinit      :      0.37s CPU      0.37s WALL (       1 calls)
     potinit      :      0.03s CPU      0.03s WALL (       1 calls)
     hinit0       :      0.19s CPU      0.19s WALL (       1 calls)

     Called by electrons:
     c_bands      :     11.05s CPU     11.34s WALL (      12 calls)
     sum_band     :      1.90s CPU      1.97s WALL (      12 calls)
     v_of_rho     :      0.17s CPU      0.17s WALL (      12 calls)
     newd         :      0.19s CPU      0.20s WALL (      12 calls)
     mix_rho      :      0.02s CPU      0.02s WALL (      12 calls)

     Called by c_bands:
     init_us_2    :      0.15s CPU      0.16s WALL (    1000 calls)
     cegterg      :     10.49s CPU     10.76s WALL (     480 calls)

     Called by sum_band:
     sum_band:bec :      0.01s CPU      0.01s WALL (     480 calls)
     addusdens    :      0.30s CPU      0.30s WALL (      12 calls)

     Called by *egterg:
     h_psi        :      7.17s CPU      7.37s WALL (    1975 calls)
     s_psi        :      0.48s CPU      0.50s WALL (    1975 calls)
     g_psi        :      0.04s CPU      0.04s WALL (    1455 calls)
     cdiaghg      :      0.97s CPU      0.99s WALL (    1895 calls)

     Called by h_psi:
     h_psi:pot    :      7.15s CPU      7.34s WALL (    1975 calls)
     h_psi:calbec :      0.68s CPU      0.70s WALL (    1975 calls)
     vloc_psi     :      5.98s CPU      6.13s WALL (    1975 calls)
     add_vuspsi   :      0.49s CPU      0.50s WALL (    1975 calls)

     General routines
     calbec       :      0.95s CPU      0.98s WALL (    2455 calls)
     fft          :      0.10s CPU      0.10s WALL (     252 calls)
     ffts         :      0.01s CPU      0.01s WALL (      24 calls)
     fftw         :      6.57s CPU      6.76s WALL (   50890 calls)

     Parallel routines
     fft_scatt_xy :      0.47s CPU      0.49s WALL (   51166 calls)
     fft_scatt_yz :      2.57s CPU      2.64s WALL (   51166 calls)

     PWSCF        :     15.42s CPU     15.83s WALL


   This run was terminated on:  13:34: 1  10Mar2022            

=------------------------------------------------------------------------------=
   JOB DONE.
=------------------------------------------------------------------------------=
