
     Program PWSCF v.6.4.1 starts on 10Mar2022 at 13:31:45 

     This program is part of the open-source Quantum ESPRESSO suite
     for quantum simulation of materials; please cite
         "P. Giannozzi et al., J. Phys.:Condens. Matter 21 395502 (2009);
         "P. Giannozzi et al., J. Phys.:Condens. Matter 29 465901 (2017);
          URL http://www.quantum-espresso.org", 
     in publications or presentations arising from this work. More details at
     http://www.quantum-espresso.org/quote

     Parallel version (MPI), running on     6 processors

     MPI processes distributed on     1 nodes
     R & G space division:  proc/nbgrp/npool/nimage =       6
     Reading input from v-9.in

     Current dimensions of program PWSCF are:
     Max number of different atomic species (ntypx) = 10
     Max number of k-points (npk) =  40000
     Max angular momentum in pseudopotentials (lmaxx) =  3
               file V.pbe-spnl-rrkjus_psl.1.0.0.UPF: wavefunction(s)  3P 3D renormalized
               file V.pbe-spnl-rrkjus_psl.1.0.0.UPF: wavefunction(s)  3P 3D renormalized

     Subspace diagonalization in iterative solution of the eigenvalue problem:
     a serial algorithm will be used

     Message from routine setup:
     DEPRECATED: symmetry with ibrav=0, use correct ibrav instead

     Parallelization info
     --------------------
     sticks:   dense  smooth     PW     G-vecs:    dense   smooth      PW
     Min          15      15      6                  115      115      28
     Max          17      17      7                  116      116      31
     Sum          97      97     37                  691      691     179



     bravais-lattice index     =            0
     lattice parameter (alat)  =       5.7259  a.u.
     unit-cell volume          =     187.7260 (a.u.)^3
     number of atoms/cell      =            2
     number of atomic types    =            2
     number of electrons       =        26.00
     number of Kohn-Sham states=           17
     kinetic-energy cutoff     =       9.0000  Ry
     charge density cutoff     =      36.0000  Ry
     convergence threshold     =      1.0E-06
     mixing beta               =       0.7000
     number of iterations used =            8  plain     mixing
     Exchange-correlation      = PBE ( 1  4  3  4 0 0)

     celldm(1)=   5.725870  celldm(2)=   0.000000  celldm(3)=   0.000000
     celldm(4)=   0.000000  celldm(5)=   0.000000  celldm(6)=   0.000000

     crystal axes: (cart. coord. in units of alat)
               a(1) = (   1.000000   0.000000   0.000000 )  
               a(2) = (   0.000000   1.000000   0.000000 )  
               a(3) = (   0.000000   0.000000   1.000000 )  

     reciprocal axes: (cart. coord. in units 2 pi/alat)
               b(1) = (  1.000000  0.000000  0.000000 )  
               b(2) = (  0.000000  1.000000  0.000000 )  
               b(3) = (  0.000000  0.000000  1.000000 )  


     PseudoPot. # 1 for V  read from file:
     /home/cristian/Escritorio/Proyecto_Grafeno/pseudopotenciales/V.pbe-spnl-rrkjus_psl.1.0.0.UPF
     MD5 check sum: 79b3eb63147daf0b665d9f1bcc691206
     Pseudo is Ultrasoft + core correction, Zval = 13.0
     Generated using "atomic" code by A. Dal Corso v.6.2.2
     Using radial grid of 1181 points,  6 beta functions with: 
                l(1) =   0
                l(2) =   0
                l(3) =   1
                l(4) =   1
                l(5) =   2
                l(6) =   2
     Q(r) pseudized with 0 coefficients 


     PseudoPot. # 2 for V  read from file:
     /home/cristian/Escritorio/Proyecto_Grafeno/pseudopotenciales/V.pbe-spnl-rrkjus_psl.1.0.0.UPF
     MD5 check sum: 79b3eb63147daf0b665d9f1bcc691206
     Pseudo is Ultrasoft + core correction, Zval = 13.0
     Generated using "atomic" code by A. Dal Corso v.6.2.2
     Using radial grid of 1181 points,  6 beta functions with: 
                l(1) =   0
                l(2) =   0
                l(3) =   1
                l(4) =   1
                l(5) =   2
                l(6) =   2
     Q(r) pseudized with 0 coefficients 


     atomic species   valence    mass     pseudopotential
        V1            13.00    50.94150     V ( 1.00)
        V2            13.00    50.94150     V ( 1.00)

     Starting magnetic structure 
     atomic species   magnetization
        V1           0.100
        V2          -0.100

     48 Sym. Ops., with inversion, found



   Cartesian axes

     site n.     atom                  positions (alat units)
         1           V1  tau(   1) = (   0.0000000   0.0000000   0.0000000  )
         2           V2  tau(   2) = (   0.5000000   0.5000000   0.5000000  )

     number of k points=    20  Methfessel-Paxton smearing, width (Ry)=  0.0300
                       cart. coord. in units 2pi/alat
        k(    1) = (   0.0625000   0.0625000   0.0625000), wk =   0.0156250
        k(    2) = (   0.0625000   0.0625000   0.1875000), wk =   0.0468750
        k(    3) = (   0.0625000   0.0625000   0.3125000), wk =   0.0468750
        k(    4) = (   0.0625000   0.0625000   0.4375000), wk =   0.0468750
        k(    5) = (   0.0625000   0.1875000   0.1875000), wk =   0.0468750
        k(    6) = (   0.0625000   0.1875000   0.3125000), wk =   0.0937500
        k(    7) = (   0.0625000   0.1875000   0.4375000), wk =   0.0937500
        k(    8) = (   0.0625000   0.3125000   0.3125000), wk =   0.0468750
        k(    9) = (   0.0625000   0.3125000   0.4375000), wk =   0.0937500
        k(   10) = (   0.0625000   0.4375000   0.4375000), wk =   0.0468750
        k(   11) = (   0.1875000   0.1875000   0.1875000), wk =   0.0156250
        k(   12) = (   0.1875000   0.1875000   0.3125000), wk =   0.0468750
        k(   13) = (   0.1875000   0.1875000   0.4375000), wk =   0.0468750
        k(   14) = (   0.1875000   0.3125000   0.3125000), wk =   0.0468750
        k(   15) = (   0.1875000   0.3125000   0.4375000), wk =   0.0937500
        k(   16) = (   0.1875000   0.4375000   0.4375000), wk =   0.0468750
        k(   17) = (   0.3125000   0.3125000   0.3125000), wk =   0.0156250
        k(   18) = (   0.3125000   0.3125000   0.4375000), wk =   0.0468750
        k(   19) = (   0.3125000   0.4375000   0.4375000), wk =   0.0468750
        k(   20) = (   0.4375000   0.4375000   0.4375000), wk =   0.0156250

     Dense  grid:      691 G-vectors     FFT dimensions: (  12,  12,  12)

     Estimated max dynamical RAM per process >       1.49 MB

     Estimated total dynamical RAM >       8.93 MB
     Generating pointlists ...
     new r_m :   0.3572 (alat units)  2.0455 (a.u.) for type    1
     new r_m :   0.3572 (alat units)  2.0455 (a.u.) for type    2

     Check: negative core charge=   -0.013189

     Initial potential from superposition of free atoms

     starting charge   25.99818, renormalised to   26.00000

     negative rho (up, down):  9.744E-02 0.000E+00
     Starting wfcs are   20 randomized atomic wfcs

     total cpu time spent up to now is        1.4 secs

     Self-consistent Calculation

     iteration #  1     ecut=     9.00 Ry     beta= 0.70
     Davidson diagonalization with overlap
     ethr =  1.00E-02,  avg # of iterations =  3.8

     total cpu time spent up to now is        1.7 secs

     total energy              =    -246.71488245 Ry
     Harris-Foulkes estimate   =    -263.30033681 Ry
     estimated scf accuracy    <      22.24354839 Ry

     total magnetization       =    -0.00 Bohr mag/cell
     absolute magnetization    =     0.13 Bohr mag/cell

     iteration #  2     ecut=     9.00 Ry     beta= 0.70
     Davidson diagonalization with overlap
     ethr =  1.00E-02,  avg # of iterations =  2.0

     total cpu time spent up to now is        1.8 secs

     total energy              =    -247.66001006 Ry
     Harris-Foulkes estimate   =    -248.32636830 Ry
     estimated scf accuracy    <       0.94237238 Ry

     total magnetization       =     0.00 Bohr mag/cell
     absolute magnetization    =     0.08 Bohr mag/cell

     iteration #  3     ecut=     9.00 Ry     beta= 0.70
     Davidson diagonalization with overlap
     ethr =  3.62E-03,  avg # of iterations =  1.2

     total cpu time spent up to now is        1.9 secs

     total energy              =    -247.69954240 Ry
     Harris-Foulkes estimate   =    -247.70519070 Ry
     estimated scf accuracy    <       0.01037106 Ry

     total magnetization       =    -0.00 Bohr mag/cell
     absolute magnetization    =     0.03 Bohr mag/cell

     iteration #  4     ecut=     9.00 Ry     beta= 0.70
     Davidson diagonalization with overlap
     ethr =  3.99E-05,  avg # of iterations =  3.5

     total cpu time spent up to now is        2.1 secs

     total energy              =    -247.70014253 Ry
     Harris-Foulkes estimate   =    -247.70016532 Ry
     estimated scf accuracy    <       0.00007842 Ry

     total magnetization       =    -0.00 Bohr mag/cell
     absolute magnetization    =     0.01 Bohr mag/cell

     iteration #  5     ecut=     9.00 Ry     beta= 0.70
     Davidson diagonalization with overlap
     ethr =  3.02E-07,  avg # of iterations =  2.8

     total cpu time spent up to now is        2.2 secs

     total energy              =    -247.70014684 Ry
     Harris-Foulkes estimate   =    -247.70015022 Ry
     estimated scf accuracy    <       0.00002498 Ry

     total magnetization       =    -0.00 Bohr mag/cell
     absolute magnetization    =     0.01 Bohr mag/cell

     iteration #  6     ecut=     9.00 Ry     beta= 0.70
     Davidson diagonalization with overlap
     ethr =  9.61E-08,  avg # of iterations =  1.9

     Magnetic moment per site:
     atom:    1    charge:   10.1613    magn:    0.0003    constr:    0.0000
     atom:    2    charge:   10.1613    magn:   -0.0003    constr:    0.0000

     total cpu time spent up to now is        2.3 secs

     End of self-consistent calculation

 ------ SPIN UP ------------


          k = 0.0625 0.0625 0.0625 (    81 PWs)   bands (ev):

   -81.7756 -81.6954 -13.4875 -13.3541 -13.3541 -12.5901 -12.5901 -12.5677
    13.8336  23.4630  23.4630  31.3271  31.3272  31.9380  34.7626  36.2674
    36.2674

          k = 0.0625 0.0625 0.1875 (    83 PWs)   bands (ev):

   -82.2008 -81.6380 -17.1723 -14.7038 -13.2749 -12.6834 -12.3826 -12.3701
    14.4825  23.6423  23.9213  29.6872  30.2765  32.3830  33.0453  34.1299
    35.6044

          k = 0.0625 0.0625 0.3125 (    85 PWs)   bands (ev):

   -82.3904 -81.5635 -16.7243 -16.1814 -14.9421 -14.5201 -11.9764 -11.9750
    16.0622  23.4490  24.8339  28.5663  29.7548  31.1985  31.8138  33.6251
    34.6260

          k = 0.0625 0.0625 0.4375 (    88 PWs)   bands (ev):

   -82.1183 -82.1022 -18.1621 -16.4948 -15.4894 -13.8097 -13.5731 -12.7281
    18.7591  21.2480  26.1748  27.4543  29.9783  30.5655  30.9113  32.1674
    34.5807

          k = 0.0625 0.1875 0.1875 (    85 PWs)   bands (ev):

   -82.4682 -81.6683 -18.3773 -14.8152 -14.4930 -13.8979 -12.5328 -12.2125
    15.1120  24.0824  24.0920  28.5181  29.0869  30.1940  32.9142  34.8136
    35.3631

          k = 0.0625 0.1875 0.3125 (    86 PWs)   bands (ev):

   -82.0931 -81.8429 -17.4909 -16.6600 -14.2427 -13.0140 -12.8902 -12.7692
    17.1285  23.2605  24.9104  28.2548  28.2602  28.6634  32.4709  34.1532
    35.6903

          k = 0.0625 0.1875 0.4375 (    86 PWs)   bands (ev):

   -82.3665 -81.4041 -19.0464 -15.3828 -14.9372 -13.6744 -12.8835 -11.3085
    19.6444  21.2220  26.0110  27.5074  28.4009  28.7357  31.4370  32.9437
    36.5754

          k = 0.0625 0.3125 0.3125 (    87 PWs)   bands (ev):

   -82.4466 -81.7205 -19.1743 -16.7300 -14.7752 -14.6730 -13.2716 -11.2988
    18.3666  22.6241  25.1852  27.1176  28.0192  28.0923  31.1855  35.9054
    36.7530

          k = 0.0625 0.3125 0.4375 (    87 PWs)   bands (ev):

   -82.4263 -81.4304 -17.3765 -16.0985 -15.7067 -14.5253 -13.2310 -11.9463
    19.7770  21.0522  26.0515  26.9571  27.1417  27.8023  32.0904  35.3672
    38.0937

          k = 0.0625 0.4375 0.4375 (    88 PWs)   bands (ev):

   -82.0926 -81.9898 -16.0534 -15.9166 -15.3287 -14.8941 -14.4704 -14.0665
    20.0381  20.7674  26.4249  26.5992  26.6900  27.3846  34.0500  36.4702
    36.5988

          k = 0.1875 0.1875 0.1875 (    84 PWs)   bands (ev):

   -82.0247 -81.6887 -17.3899 -14.2808 -14.2808 -13.1466 -12.5269 -12.5269
    16.5482  24.4604  24.4604  26.2547  28.1795  28.1795  36.2219  36.2220
    36.7525

          k = 0.1875 0.1875 0.3125 (    85 PWs)   bands (ev):

   -82.0820 -81.6553 -18.0427 -14.4020 -14.1573 -13.6772 -13.4315 -12.1310
    17.7265  23.6151  25.2013  26.3662  26.9585  27.7609  35.3278  35.9167
    36.0366

          k = 0.1875 0.1875 0.4375 (    87 PWs)   bands (ev):

   -82.3423 -81.7523 -19.3000 -17.1725 -13.8110 -13.5987 -13.2176 -12.7389
    19.7478  21.6678  26.0394  27.2705  27.3385  28.5555  33.8434  34.0994
    34.9512

          k = 0.1875 0.3125 0.3125 (    85 PWs)   bands (ev):

   -82.4085 -81.1559 -19.2424 -14.4773 -13.8746 -13.6683 -13.3875 -10.6009
    19.2033  23.1552  25.4393  26.2723  27.0311  27.8758  33.7470  37.2207
    37.5766

          k = 0.1875 0.3125 0.4375 (    87 PWs)   bands (ev):

   -82.0866 -81.6848 -17.2538 -16.0453 -15.3708 -14.3584 -12.9102 -12.2506
    20.3925  21.9383  25.9380  26.7577  27.3993  27.4038  33.9857  35.8987
    36.6165

          k = 0.1875 0.4375 0.4375 (    85 PWs)   bands (ev):

   -82.1384 -80.8868 -16.8319 -15.2479 -14.6565 -12.7659 -12.5951 -11.1321
    21.0724  22.1069  26.5804  26.6489  27.5911  27.7852  34.7685  35.4334
    37.9631

          k = 0.3125 0.3125 0.3125 (    84 PWs)   bands (ev):

   -82.9136 -80.1115 -19.9867 -16.0667 -16.0667 -10.1615 -10.1615  -9.6430
    21.7485  23.2754  25.4023  25.4023  27.8785  27.8785  35.9575  35.9752
    35.9752

          k = 0.3125 0.3125 0.4375 (    81 PWs)   bands (ev):

   -81.1536 -80.8660 -14.1801 -13.0514 -13.0181 -11.7502 -11.5825 -11.3233
    21.9380  23.1861  26.4317  27.0001  27.2986  27.4486  35.4321  36.0480
    37.7889

          k = 0.3125 0.4375 0.4375 (    83 PWs)   bands (ev):

   -81.4084 -81.1903 -15.4035 -14.3794 -13.9062 -13.8211 -11.0870 -10.4388
    24.0684  24.4839  26.1171  26.7181  27.1714  27.4307  34.0739  34.8476
    38.5102

          k = 0.4375 0.4375 0.4375 (    88 PWs)   bands (ev):

   -82.0488 -82.0474 -15.3796 -15.1223 -15.1223 -14.7056 -14.7056 -14.5597
    25.2048  26.0475  26.2952  26.2952  26.7367  26.7367  32.0169  32.0445
    38.6837

 ------ SPIN DOWN ----------


          k = 0.0625 0.0625 0.0625 (    81 PWs)   bands (ev):

   -81.7756 -81.6954 -13.4875 -13.3541 -13.3541 -12.5901 -12.5901 -12.5677
    13.8336  23.4630  23.4630  31.3272  31.3272  31.9380  34.7626  36.2674
    36.2674

          k = 0.0625 0.0625 0.1875 (    83 PWs)   bands (ev):

   -82.2008 -81.6380 -17.1723 -14.7038 -13.2749 -12.6834 -12.3826 -12.3701
    14.4824  23.6423  23.9213  29.6872  30.2765  32.3830  33.0453  34.1299
    35.6044

          k = 0.0625 0.0625 0.3125 (    85 PWs)   bands (ev):

   -82.3904 -81.5635 -16.7243 -16.1814 -14.9421 -14.5201 -11.9764 -11.9750
    16.0622  23.4490  24.8339  28.5663  29.7548  31.1985  31.8138  33.6251
    34.6260

          k = 0.0625 0.0625 0.4375 (    88 PWs)   bands (ev):

   -82.1183 -82.1022 -18.1621 -16.4948 -15.4894 -13.8097 -13.5731 -12.7281
    18.7591  21.2480  26.1748  27.4543  29.9783  30.5655  30.9113  32.1674
    34.5807

          k = 0.0625 0.1875 0.1875 (    85 PWs)   bands (ev):

   -82.4682 -81.6683 -18.3773 -14.8152 -14.4930 -13.8979 -12.5328 -12.2125
    15.1120  24.0824  24.0920  28.5181  29.0869  30.1940  32.9142  34.8136
    35.3631

          k = 0.0625 0.1875 0.3125 (    86 PWs)   bands (ev):

   -82.0931 -81.8429 -17.4909 -16.6600 -14.2427 -13.0140 -12.8902 -12.7692
    17.1285  23.2605  24.9104  28.2548  28.2602  28.6634  32.4709  34.1532
    35.6903

          k = 0.0625 0.1875 0.4375 (    86 PWs)   bands (ev):

   -82.3665 -81.4041 -19.0464 -15.3828 -14.9372 -13.6744 -12.8835 -11.3085
    19.6444  21.2220  26.0110  27.5074  28.4009  28.7357  31.4370  32.9437
    36.5754

          k = 0.0625 0.3125 0.3125 (    87 PWs)   bands (ev):

   -82.4466 -81.7205 -19.1743 -16.7300 -14.7752 -14.6730 -13.2716 -11.2988
    18.3666  22.6241  25.1852  27.1176  28.0192  28.0923  31.1855  35.9054
    36.7531

          k = 0.0625 0.3125 0.4375 (    87 PWs)   bands (ev):

   -82.4263 -81.4304 -17.3764 -16.0985 -15.7067 -14.5253 -13.2310 -11.9463
    19.7769  21.0522  26.0515  26.9571  27.1417  27.8022  32.0904  35.3672
    38.0937

          k = 0.0625 0.4375 0.4375 (    88 PWs)   bands (ev):

   -82.0926 -81.9898 -16.0534 -15.9166 -15.3287 -14.8941 -14.4704 -14.0665
    20.0381  20.7674  26.4249  26.5992  26.6900  27.3846  34.0500  36.4702
    36.5988

          k = 0.1875 0.1875 0.1875 (    84 PWs)   bands (ev):

   -82.0247 -81.6887 -17.3899 -14.2808 -14.2808 -13.1466 -12.5269 -12.5269
    16.5482  24.4604  24.4604  26.2547  28.1795  28.1795  36.2219  36.2220
    36.7525

          k = 0.1875 0.1875 0.3125 (    85 PWs)   bands (ev):

   -82.0820 -81.6553 -18.0427 -14.4020 -14.1573 -13.6772 -13.4315 -12.1310
    17.7265  23.6151  25.2013  26.3662  26.9585  27.7609  35.3278  35.9167
    36.0366

          k = 0.1875 0.1875 0.4375 (    87 PWs)   bands (ev):

   -82.3423 -81.7523 -19.3000 -17.1725 -13.8110 -13.5987 -13.2176 -12.7389
    19.7478  21.6678  26.0394  27.2705  27.3385  28.5555  33.8433  34.0994
    34.9512

          k = 0.1875 0.3125 0.3125 (    85 PWs)   bands (ev):

   -82.4085 -81.1559 -19.2424 -14.4773 -13.8746 -13.6683 -13.3875 -10.6009
    19.2033  23.1552  25.4393  26.2723  27.0311  27.8758  33.7470  37.2207
    37.5765

          k = 0.1875 0.3125 0.4375 (    87 PWs)   bands (ev):

   -82.0866 -81.6848 -17.2538 -16.0453 -15.3708 -14.3584 -12.9102 -12.2506
    20.3925  21.9383  25.9380  26.7577  27.3993  27.4038  33.9857  35.8987
    36.6165

          k = 0.1875 0.4375 0.4375 (    85 PWs)   bands (ev):

   -82.1384 -80.8868 -16.8319 -15.2479 -14.6565 -12.7659 -12.5951 -11.1321
    21.0724  22.1069  26.5804  26.6489  27.5911  27.7852  34.7685  35.4334
    37.9631

          k = 0.3125 0.3125 0.3125 (    84 PWs)   bands (ev):

   -82.9136 -80.1115 -19.9867 -16.0667 -16.0667 -10.1615 -10.1615  -9.6430
    21.7485  23.2754  25.4023  25.4023  27.8785  27.8785  35.9575  35.9752
    35.9752

          k = 0.3125 0.3125 0.4375 (    81 PWs)   bands (ev):

   -81.1536 -80.8660 -14.1801 -13.0514 -13.0181 -11.7502 -11.5825 -11.3233
    21.9379  23.1861  26.4317  27.0001  27.2986  27.4486  35.4321  36.0480
    37.7889

          k = 0.3125 0.4375 0.4375 (    83 PWs)   bands (ev):

   -81.4085 -81.1903 -15.4035 -14.3794 -13.9062 -13.8211 -11.0870 -10.4388
    24.0684  24.4839  26.1171  26.7181  27.1714  27.4307  34.0739  34.8476
    38.5102

          k = 0.4375 0.4375 0.4375 (    88 PWs)   bands (ev):

   -82.0488 -82.0474 -15.3796 -15.1223 -15.1223 -14.7056 -14.7056 -14.5597
    25.2048  26.0475  26.2952  26.2952  26.7367  26.7367  32.0169  32.0445
    38.6837

     the Fermi energy is    28.2285 ev

!    total energy              =    -247.70014880 Ry
     Harris-Foulkes estimate   =    -247.70014879 Ry
     estimated scf accuracy    <       0.00000011 Ry

     The total energy is the sum of the following terms:

     one-electron contribution =     -17.54253722 Ry
     hartree contribution      =      16.70542654 Ry
     xc contribution           =     -32.03770918 Ry
     ewald contribution        =    -214.82514740 Ry
     smearing contrib. (-TS)   =      -0.00018155 Ry

     total magnetization       =    -0.00 Bohr mag/cell
     absolute magnetization    =     0.00 Bohr mag/cell

     convergence has been achieved in   6 iterations

     Writing output data file v-9.save/

     init_run     :      0.09s CPU      0.09s WALL (       1 calls)
     electrons    :      0.86s CPU      0.90s WALL (       1 calls)

     Called by init_run:
     wfcinit      :      0.04s CPU      0.04s WALL (       1 calls)
     potinit      :      0.00s CPU      0.00s WALL (       1 calls)
     hinit0       :      0.05s CPU      0.05s WALL (       1 calls)

     Called by electrons:
     c_bands      :      0.78s CPU      0.81s WALL (       6 calls)
     sum_band     :      0.07s CPU      0.08s WALL (       6 calls)
     v_of_rho     :      0.00s CPU      0.00s WALL (       7 calls)
     newd         :      0.00s CPU      0.00s WALL (       7 calls)
     mix_rho      :      0.00s CPU      0.00s WALL (       6 calls)

     Called by c_bands:
     init_us_2    :      0.00s CPU      0.01s WALL (     520 calls)
     cegterg      :      0.76s CPU      0.79s WALL (     240 calls)

     Called by sum_band:
     sum_band:bec :      0.00s CPU      0.00s WALL (     240 calls)
     addusdens    :      0.01s CPU      0.01s WALL (       6 calls)

     Called by *egterg:
     h_psi        :      0.29s CPU      0.30s WALL (     893 calls)
     s_psi        :      0.02s CPU      0.02s WALL (     893 calls)
     g_psi        :      0.00s CPU      0.00s WALL (     613 calls)
     cdiaghg      :      0.39s CPU      0.40s WALL (     853 calls)

     Called by h_psi:
     h_psi:pot    :      0.29s CPU      0.30s WALL (     893 calls)
     h_psi:calbec :      0.04s CPU      0.04s WALL (     893 calls)
     vloc_psi     :      0.23s CPU      0.24s WALL (     893 calls)
     add_vuspsi   :      0.02s CPU      0.02s WALL (     893 calls)

     General routines
     calbec       :      0.05s CPU      0.05s WALL (    1133 calls)
     fft          :      0.00s CPU      0.00s WALL (     145 calls)
     ffts         :      0.00s CPU      0.00s WALL (      12 calls)
     fftw         :      0.25s CPU      0.26s WALL (   26092 calls)

     Parallel routines
     fft_scatt_xy :      0.02s CPU      0.02s WALL (   26249 calls)
     fft_scatt_yz :      0.17s CPU      0.18s WALL (   26249 calls)

     PWSCF        :      2.33s CPU      2.39s WALL


   This run was terminated on:  13:31:47  10Mar2022            

=------------------------------------------------------------------------------=
   JOB DONE.
=------------------------------------------------------------------------------=
