
     Program PWSCF v.6.4.1 starts on 10Mar2022 at 13:34:22 

     This program is part of the open-source Quantum ESPRESSO suite
     for quantum simulation of materials; please cite
         "P. Giannozzi et al., J. Phys.:Condens. Matter 21 395502 (2009);
         "P. Giannozzi et al., J. Phys.:Condens. Matter 29 465901 (2017);
          URL http://www.quantum-espresso.org", 
     in publications or presentations arising from this work. More details at
     http://www.quantum-espresso.org/quote

     Parallel version (MPI), running on     6 processors

     MPI processes distributed on     1 nodes
     R & G space division:  proc/nbgrp/npool/nimage =       6
     Reading input from v-90.in

     Current dimensions of program PWSCF are:
     Max number of different atomic species (ntypx) = 10
     Max number of k-points (npk) =  40000
     Max angular momentum in pseudopotentials (lmaxx) =  3
               file V.pbe-spnl-rrkjus_psl.1.0.0.UPF: wavefunction(s)  3P 3D renormalized
               file V.pbe-spnl-rrkjus_psl.1.0.0.UPF: wavefunction(s)  3P 3D renormalized

     Subspace diagonalization in iterative solution of the eigenvalue problem:
     a serial algorithm will be used

     Message from routine setup:
     DEPRECATED: symmetry with ibrav=0, use correct ibrav instead

     Parallelization info
     --------------------
     sticks:   dense  smooth     PW     G-vecs:    dense   smooth      PW
     Min         157     157     46                 3605     3605     570
     Max         159     159     47                 3606     3606     573
     Sum         949     949    277                21631    21631    3431



     bravais-lattice index     =            0
     lattice parameter (alat)  =       5.7259  a.u.
     unit-cell volume          =     187.7260 (a.u.)^3
     number of atoms/cell      =            2
     number of atomic types    =            2
     number of electrons       =        26.00
     number of Kohn-Sham states=           17
     kinetic-energy cutoff     =      90.0000  Ry
     charge density cutoff     =     360.0000  Ry
     convergence threshold     =      1.0E-06
     mixing beta               =       0.7000
     number of iterations used =            8  plain     mixing
     Exchange-correlation      = PBE ( 1  4  3  4 0 0)

     celldm(1)=   5.725870  celldm(2)=   0.000000  celldm(3)=   0.000000
     celldm(4)=   0.000000  celldm(5)=   0.000000  celldm(6)=   0.000000

     crystal axes: (cart. coord. in units of alat)
               a(1) = (   1.000000   0.000000   0.000000 )  
               a(2) = (   0.000000   1.000000   0.000000 )  
               a(3) = (   0.000000   0.000000   1.000000 )  

     reciprocal axes: (cart. coord. in units 2 pi/alat)
               b(1) = (  1.000000  0.000000  0.000000 )  
               b(2) = (  0.000000  1.000000  0.000000 )  
               b(3) = (  0.000000  0.000000  1.000000 )  


     PseudoPot. # 1 for V  read from file:
     /home/cristian/Escritorio/Proyecto_Grafeno/pseudopotenciales/V.pbe-spnl-rrkjus_psl.1.0.0.UPF
     MD5 check sum: 79b3eb63147daf0b665d9f1bcc691206
     Pseudo is Ultrasoft + core correction, Zval = 13.0
     Generated using "atomic" code by A. Dal Corso v.6.2.2
     Using radial grid of 1181 points,  6 beta functions with: 
                l(1) =   0
                l(2) =   0
                l(3) =   1
                l(4) =   1
                l(5) =   2
                l(6) =   2
     Q(r) pseudized with 0 coefficients 


     PseudoPot. # 2 for V  read from file:
     /home/cristian/Escritorio/Proyecto_Grafeno/pseudopotenciales/V.pbe-spnl-rrkjus_psl.1.0.0.UPF
     MD5 check sum: 79b3eb63147daf0b665d9f1bcc691206
     Pseudo is Ultrasoft + core correction, Zval = 13.0
     Generated using "atomic" code by A. Dal Corso v.6.2.2
     Using radial grid of 1181 points,  6 beta functions with: 
                l(1) =   0
                l(2) =   0
                l(3) =   1
                l(4) =   1
                l(5) =   2
                l(6) =   2
     Q(r) pseudized with 0 coefficients 


     atomic species   valence    mass     pseudopotential
        V1            13.00    50.94150     V ( 1.00)
        V2            13.00    50.94150     V ( 1.00)

     Starting magnetic structure 
     atomic species   magnetization
        V1           0.100
        V2          -0.100

     48 Sym. Ops., with inversion, found



   Cartesian axes

     site n.     atom                  positions (alat units)
         1           V1  tau(   1) = (   0.0000000   0.0000000   0.0000000  )
         2           V2  tau(   2) = (   0.5000000   0.5000000   0.5000000  )

     number of k points=    20  Methfessel-Paxton smearing, width (Ry)=  0.0300
                       cart. coord. in units 2pi/alat
        k(    1) = (   0.0625000   0.0625000   0.0625000), wk =   0.0156250
        k(    2) = (   0.0625000   0.0625000   0.1875000), wk =   0.0468750
        k(    3) = (   0.0625000   0.0625000   0.3125000), wk =   0.0468750
        k(    4) = (   0.0625000   0.0625000   0.4375000), wk =   0.0468750
        k(    5) = (   0.0625000   0.1875000   0.1875000), wk =   0.0468750
        k(    6) = (   0.0625000   0.1875000   0.3125000), wk =   0.0937500
        k(    7) = (   0.0625000   0.1875000   0.4375000), wk =   0.0937500
        k(    8) = (   0.0625000   0.3125000   0.3125000), wk =   0.0468750
        k(    9) = (   0.0625000   0.3125000   0.4375000), wk =   0.0937500
        k(   10) = (   0.0625000   0.4375000   0.4375000), wk =   0.0468750
        k(   11) = (   0.1875000   0.1875000   0.1875000), wk =   0.0156250
        k(   12) = (   0.1875000   0.1875000   0.3125000), wk =   0.0468750
        k(   13) = (   0.1875000   0.1875000   0.4375000), wk =   0.0468750
        k(   14) = (   0.1875000   0.3125000   0.3125000), wk =   0.0468750
        k(   15) = (   0.1875000   0.3125000   0.4375000), wk =   0.0937500
        k(   16) = (   0.1875000   0.4375000   0.4375000), wk =   0.0468750
        k(   17) = (   0.3125000   0.3125000   0.3125000), wk =   0.0156250
        k(   18) = (   0.3125000   0.3125000   0.4375000), wk =   0.0468750
        k(   19) = (   0.3125000   0.4375000   0.4375000), wk =   0.0468750
        k(   20) = (   0.4375000   0.4375000   0.4375000), wk =   0.0156250

     Dense  grid:    21631 G-vectors     FFT dimensions: (  36,  36,  36)

     Estimated max dynamical RAM per process >      21.71 MB

     Estimated total dynamical RAM >     130.23 MB
     Generating pointlists ...
     new r_m :   0.3572 (alat units)  2.0455 (a.u.) for type    1
     new r_m :   0.3572 (alat units)  2.0455 (a.u.) for type    2

     Check: negative core charge=   -0.000007

     Initial potential from superposition of free atoms

     starting charge   25.99818, renormalised to   26.00000
     Starting wfcs are   20 randomized atomic wfcs

     total cpu time spent up to now is        2.1 secs

     Self-consistent Calculation

     iteration #  1     ecut=    90.00 Ry     beta= 0.70
     Davidson diagonalization with overlap
     ethr =  1.00E-02,  avg # of iterations =  2.5

     Threshold (ethr) on eigenvalues was too large:
     Diagonalizing with lowered threshold

     Davidson diagonalization with overlap
     ethr =  5.00E-04,  avg # of iterations =  2.2

     total cpu time spent up to now is        4.6 secs

     total energy              =    -291.03134946 Ry
     Harris-Foulkes estimate   =    -291.11002946 Ry
     estimated scf accuracy    <       0.14064081 Ry

     total magnetization       =     0.00 Bohr mag/cell
     absolute magnetization    =     1.30 Bohr mag/cell

     iteration #  2     ecut=    90.00 Ry     beta= 0.70
     Davidson diagonalization with overlap
     ethr =  5.41E-04,  avg # of iterations =  3.1

     total cpu time spent up to now is        6.3 secs

     total energy              =    -291.05937185 Ry
     Harris-Foulkes estimate   =    -291.12138078 Ry
     estimated scf accuracy    <       0.12320079 Ry

     total magnetization       =    -0.00 Bohr mag/cell
     absolute magnetization    =     1.40 Bohr mag/cell

     iteration #  3     ecut=    90.00 Ry     beta= 0.70
     Davidson diagonalization with overlap
     ethr =  4.74E-04,  avg # of iterations =  3.0

     total cpu time spent up to now is        7.7 secs

     total energy              =    -291.08898171 Ry
     Harris-Foulkes estimate   =    -291.08797933 Ry
     estimated scf accuracy    <       0.00336069 Ry

     total magnetization       =     0.00 Bohr mag/cell
     absolute magnetization    =     1.13 Bohr mag/cell

     iteration #  4     ecut=    90.00 Ry     beta= 0.70
     Davidson diagonalization with overlap
     ethr =  1.29E-05,  avg # of iterations =  4.5

     total cpu time spent up to now is        9.4 secs

     total energy              =    -291.09042594 Ry
     Harris-Foulkes estimate   =    -291.09305378 Ry
     estimated scf accuracy    <       0.02381519 Ry

     total magnetization       =    -0.04 Bohr mag/cell
     absolute magnetization    =     0.77 Bohr mag/cell

     iteration #  5     ecut=    90.00 Ry     beta= 0.70
     Davidson diagonalization with overlap
     ethr =  1.29E-05,  avg # of iterations =  4.0

     total cpu time spent up to now is       10.9 secs

     total energy              =    -291.09254875 Ry
     Harris-Foulkes estimate   =    -291.09186453 Ry
     estimated scf accuracy    <       0.00059853 Ry

     total magnetization       =     0.00 Bohr mag/cell
     absolute magnetization    =     0.73 Bohr mag/cell

     iteration #  6     ecut=    90.00 Ry     beta= 0.70
     Davidson diagonalization with overlap
     ethr =  2.30E-06,  avg # of iterations =  4.2

     total cpu time spent up to now is       12.4 secs

     total energy              =    -291.09176423 Ry
     Harris-Foulkes estimate   =    -291.09294146 Ry
     estimated scf accuracy    <       0.00029057 Ry

     total magnetization       =     0.00 Bohr mag/cell
     absolute magnetization    =     0.56 Bohr mag/cell

     iteration #  7     ecut=    90.00 Ry     beta= 0.70
     Davidson diagonalization with overlap
     ethr =  1.12E-06,  avg # of iterations =  5.3

     total cpu time spent up to now is       14.3 secs

     total energy              =    -291.09430325 Ry
     Harris-Foulkes estimate   =    -291.09432435 Ry
     estimated scf accuracy    <       0.00002393 Ry

     total magnetization       =     0.00 Bohr mag/cell
     absolute magnetization    =     0.09 Bohr mag/cell

     iteration #  8     ecut=    90.00 Ry     beta= 0.70
     Davidson diagonalization with overlap
     ethr =  9.21E-08,  avg # of iterations =  5.0

     Magnetic moment per site:
     atom:    1    charge:   11.3142    magn:    0.0091    constr:    0.0000
     atom:    2    charge:   11.3145    magn:   -0.0078    constr:    0.0000

     total cpu time spent up to now is       15.9 secs

     End of self-consistent calculation

 ------ SPIN UP ------------


          k = 0.0625 0.0625 0.0625 (  2704 PWs)   bands (ev):

   -47.7215 -47.4430 -21.6343 -21.6343 -21.5897 -21.1231 -21.0759 -21.0759
     9.7030  13.2899  13.2899  16.3543  16.3543  16.6175  18.3107  18.3107
    19.0325

          k = 0.0625 0.0625 0.1875 (  2710 PWs)   bands (ev):

   -47.6970 -47.4607 -21.6581 -21.5896 -21.5258 -21.2230 -21.1159 -21.0932
    10.2905  13.5831  13.5996  16.2177  16.2914  16.9420  17.9150  18.1964
    18.4951

          k = 0.0625 0.0625 0.3125 (  2727 PWs)   bands (ev):

   -47.6531 -47.4949 -21.6532 -21.5078 -21.4405 -21.3625 -21.1911 -21.1520
    11.3492  13.8683  14.1877  16.1895  16.2086  17.2759  17.3625  17.4001
    17.8944

          k = 0.0625 0.0625 0.4375 (  2718 PWs)   bands (ev):

   -47.5987 -47.5425 -21.6032 -21.5013 -21.4029 -21.3404 -21.2913 -21.2392
    12.6121  13.6045  14.9787  15.7904  16.3993  16.7791  16.9212  17.2191
    17.9604

          k = 0.0625 0.1875 0.1875 (  2710 PWs)   bands (ev):

   -47.6756 -47.4751 -21.7036 -21.5653 -21.4363 -21.3452 -21.1451 -21.0780
    10.8312  13.7846  13.9474  15.9041  16.1028  17.3053  17.4646  18.0508
    18.3270

          k = 0.0625 0.1875 0.3125 (  2703 PWs)   bands (ev):

   -47.6375 -47.5032 -21.7326 -21.4953 -21.4922 -21.3387 -21.2093 -21.1007
    11.7750  13.9577  14.4893  15.7088  15.9199  16.5669  17.7266  17.7826
    18.0833

          k = 0.0625 0.1875 0.4375 (  2713 PWs)   bands (ev):

   -47.5908 -47.5429 -21.7105 -21.6273 -21.3974 -21.2973 -21.2433 -21.1599
    12.8379  13.6615  15.0733  15.5466  15.8634  16.1136  17.5185  17.5532
    18.6462

          k = 0.0625 0.3125 0.3125 (  2701 PWs)   bands (ev):

   -47.6101 -47.5201 -21.8006 -21.6441 -21.4407 -21.2492 -21.2398 -21.0811
    12.4121  13.7615  15.1969  15.3444  15.8856  15.9313  17.6382  18.1657
    18.5409

          k = 0.0625 0.3125 0.4375 (  2699 PWs)   bands (ev):

   -47.5778 -47.5451 -21.8151 -21.7605 -21.3741 -21.3061 -21.1582 -21.1024
    12.9716  13.4043  15.2324  15.4068  15.8994  16.1455  17.8963  18.1300
    18.8384

          k = 0.0625 0.4375 0.4375 (  2697 PWs)   bands (ev):

   -47.5647 -47.5506 -21.8684 -21.8494 -21.3472 -21.3217 -21.1029 -21.0833
    12.9921  13.1189  14.9865  15.0531  16.8474  17.0381  18.2270  18.3597
    18.6797

          k = 0.1875 0.1875 0.1875 (  2707 PWs)   bands (ev):

   -47.6568 -47.4866 -21.6538 -21.6538 -21.4421 -21.3433 -21.1232 -21.1232
    11.3537  14.1392  14.1392  15.7311  15.7311  16.3588  18.0659  18.2629
    18.2629

          k = 0.1875 0.1875 0.3125 (  2706 PWs)   bands (ev):

   -47.6237 -47.5096 -21.7163 -21.5668 -21.5627 -21.2585 -21.2079 -21.1200
    12.2414  14.3965  14.4715  15.4703  15.5454  15.7936  18.0274  18.2266
    18.5691

          k = 0.1875 0.1875 0.4375 (  2705 PWs)   bands (ev):

   -47.5835 -47.5426 -21.7258 -21.6721 -21.4455 -21.3205 -21.1903 -21.1430
    13.1891  13.9557  14.8481  15.1817  15.6844  15.8311  17.8140  17.8345
    18.7798

          k = 0.1875 0.3125 0.3125 (  2712 PWs)   bands (ev):

   -47.5997 -47.5232 -21.7439 -21.6650 -21.5374 -21.2474 -21.1940 -21.1336
    12.9322  14.2134  15.1421  15.1892  15.2827  15.4084  18.1785  18.2881
    18.5433

          k = 0.1875 0.3125 0.4375 (  2707 PWs)   bands (ev):

   -47.5718 -47.5437 -21.7700 -21.7430 -21.4423 -21.3351 -21.1550 -21.1383
    13.4633  13.8404  15.0424  15.0563  15.6647  15.7137  18.1546  18.2323
    18.7366

          k = 0.1875 0.4375 0.4375 (  2698 PWs)   bands (ev):

   -47.5604 -47.5476 -21.8069 -21.7982 -21.3991 -21.3560 -21.1430 -21.1410
    13.4866  13.5818  14.8854  14.9227  16.2605  16.2821  18.3813  18.4450
    18.6971

          k = 0.3125 0.3125 0.3125 (  2704 PWs)   bands (ev):

   -47.5820 -47.5304 -21.7000 -21.6398 -21.6398 -21.2317 -21.2317 -21.1704
    13.7295  14.5819  14.9947  14.9947  15.0282  15.0282  18.5173  18.5173
    18.6019

          k = 0.3125 0.3125 0.4375 (  2702 PWs)   bands (ev):

   -47.5624 -47.5426 -21.7236 -21.7070 -21.5055 -21.3619 -21.2032 -21.1770
    14.1316  14.2728  14.8849  14.9105  15.2183  15.4339  18.4462  18.4642
    18.7068

          k = 0.3125 0.4375 0.4375 (  2703 PWs)   bands (ev):

   -47.5541 -47.5434 -21.7108 -21.6939 -21.4755 -21.3950 -21.2487 -21.2208
    14.2503  14.2741  14.7875  14.8516  15.4853  15.6005  18.5870  18.6060
    18.7176

          k = 0.4375 0.4375 0.4375 (  2704 PWs)   bands (ev):

   -47.5496 -47.5406 -21.6190 -21.5477 -21.5477 -21.3911 -21.3911 -21.3184
    14.5960  14.8245  14.8245  15.0595  15.0882  15.0882  18.7238  18.7238
    18.7370

 ------ SPIN DOWN ----------


          k = 0.0625 0.0625 0.0625 (  2704 PWs)   bands (ev):

   -47.7210 -47.4424 -21.6337 -21.6337 -21.5891 -21.1225 -21.0753 -21.0753
     9.7040  13.2903  13.2903  16.3553  16.3553  16.6185  18.3107  18.3107
    19.0335

          k = 0.0625 0.0625 0.1875 (  2710 PWs)   bands (ev):

   -47.6965 -47.4601 -21.6575 -21.5890 -21.5252 -21.2224 -21.1154 -21.0926
    10.2915  13.5835  13.6000  16.2187  16.2923  16.9430  17.9151  18.1973
    18.4952

          k = 0.0625 0.0625 0.3125 (  2727 PWs)   bands (ev):

   -47.6526 -47.4944 -21.6526 -21.5072 -21.4399 -21.3619 -21.1905 -21.1514
    11.3502  13.8689  14.1881  16.1904  16.2096  17.2763  17.3635  17.4011
    17.8953

          k = 0.0625 0.0625 0.4375 (  2718 PWs)   bands (ev):

   -47.5982 -47.5419 -21.6027 -21.5008 -21.4024 -21.3398 -21.2907 -21.2386
    12.6130  13.6053  14.9791  15.7909  16.4003  16.7801  16.9220  17.2200
    17.9614

          k = 0.0625 0.1875 0.1875 (  2710 PWs)   bands (ev):

   -47.6751 -47.4745 -21.7030 -21.5647 -21.4357 -21.3446 -21.1445 -21.0774
    10.8321  13.7850  13.9479  15.9051  16.1037  17.3063  17.4655  18.0510
    18.3279

          k = 0.0625 0.1875 0.3125 (  2703 PWs)   bands (ev):

   -47.6370 -47.5027 -21.7320 -21.4947 -21.4917 -21.3381 -21.2088 -21.1001
    11.7759  13.9583  14.4898  15.7098  15.9208  16.5679  17.7274  17.7829
    18.0843

          k = 0.0625 0.1875 0.4375 (  2713 PWs)   bands (ev):

   -47.5903 -47.5423 -21.7100 -21.6268 -21.3968 -21.2967 -21.2427 -21.1593
    12.8388  13.6623  15.0738  15.5473  15.8643  16.1146  17.5192  17.5538
    18.6470

          k = 0.0625 0.3125 0.3125 (  2701 PWs)   bands (ev):

   -47.6096 -47.5195 -21.8000 -21.6435 -21.4402 -21.2487 -21.2393 -21.0805
    12.4130  13.7622  15.1974  15.3454  15.8866  15.9321  17.6389  18.1661
    18.5410

          k = 0.0625 0.3125 0.4375 (  2699 PWs)   bands (ev):

   -47.5773 -47.5445 -21.8145 -21.7599 -21.3736 -21.3055 -21.1576 -21.1018
    12.9725  13.4051  15.2334  15.4078  15.9000  16.1463  17.8968  18.1305
    18.8386

          k = 0.0625 0.4375 0.4375 (  2697 PWs)   bands (ev):

   -47.5643 -47.5499 -21.8678 -21.8488 -21.3467 -21.3210 -21.1024 -21.0828
    12.9929  13.1198  14.9875  15.0542  16.8481  17.0390  18.2274  18.3601
    18.6800

          k = 0.1875 0.1875 0.1875 (  2707 PWs)   bands (ev):

   -47.6563 -47.4861 -21.6533 -21.6533 -21.4416 -21.3427 -21.1226 -21.1226
    11.3546  14.1397  14.1397  15.7320  15.7320  16.3598  18.0669  18.2631
    18.2631

          k = 0.1875 0.1875 0.3125 (  2706 PWs)   bands (ev):

   -47.6231 -47.5091 -21.7157 -21.5662 -21.5622 -21.2580 -21.2073 -21.1195
    12.2424  14.3971  14.4720  15.4712  15.5464  15.7946  18.0277  18.2274
    18.5693

          k = 0.1875 0.1875 0.4375 (  2705 PWs)   bands (ev):

   -47.5830 -47.5420 -21.7252 -21.6715 -21.4450 -21.3200 -21.1898 -21.1424
    13.1901  13.9565  14.8487  15.1824  15.6854  15.8320  17.8145  17.8352
    18.7794

          k = 0.1875 0.3125 0.3125 (  2712 PWs)   bands (ev):

   -47.5992 -47.5226 -21.7433 -21.6644 -21.5368 -21.2468 -21.1935 -21.1330
    12.9332  14.2141  15.1427  15.1902  15.2836  15.4093  18.1791  18.2883
    18.5434

          k = 0.1875 0.3125 0.4375 (  2707 PWs)   bands (ev):

   -47.5713 -47.5431 -21.7695 -21.7424 -21.4417 -21.3345 -21.1545 -21.1377
    13.4642  13.8413  15.0434  15.0572  15.6656  15.7145  18.1551  18.2327
    18.7368

          k = 0.1875 0.4375 0.4375 (  2698 PWs)   bands (ev):

   -47.5600 -47.5468 -21.8063 -21.7977 -21.3986 -21.3553 -21.1425 -21.1405
    13.4875  13.5826  14.8865  14.9237  16.2614  16.2829  18.3816  18.4453
    18.6972

          k = 0.3125 0.3125 0.3125 (  2704 PWs)   bands (ev):

   -47.5815 -47.5298 -21.6994 -21.6392 -21.6392 -21.2312 -21.2312 -21.1698
    13.7305  14.5829  14.9956  14.9956  15.0289  15.0289  18.5174  18.5174
    18.6025

          k = 0.3125 0.3125 0.4375 (  2702 PWs)   bands (ev):

   -47.5620 -47.5419 -21.7231 -21.7064 -21.5049 -21.3613 -21.2026 -21.1765
    14.1325  14.2738  14.8858  14.9113  15.2193  15.4347  18.4465  18.4645
    18.7069

          k = 0.3125 0.4375 0.4375 (  2703 PWs)   bands (ev):

   -47.5538 -47.5427 -21.7102 -21.6933 -21.4750 -21.3944 -21.2481 -21.2202
    14.2513  14.2750  14.7885  14.8525  15.4863  15.6015  18.5871  18.6063
    18.7176

          k = 0.4375 0.4375 0.4375 (  2704 PWs)   bands (ev):

   -47.5493 -47.5398 -21.6184 -21.5472 -21.5472 -21.3905 -21.3905 -21.3179
    14.5970  14.8255  14.8255  15.0605  15.0891  15.0891  18.7237  18.7237
    18.7373

     the Fermi energy is    16.0294 ev

!    total energy              =    -291.09436328 Ry
     Harris-Foulkes estimate   =    -291.09436136 Ry
     estimated scf accuracy    <       0.00000074 Ry

     The total energy is the sum of the following terms:

     one-electron contribution =     -95.01438906 Ry
     hartree contribution      =      59.37611995 Ry
     xc contribution           =     -40.62908756 Ry
     ewald contribution        =    -214.82514739 Ry
     smearing contrib. (-TS)   =      -0.00185921 Ry

     total magnetization       =     0.00 Bohr mag/cell
     absolute magnetization    =     0.02 Bohr mag/cell

     convergence has been achieved in   8 iterations

     Writing output data file v-90.save/

     init_run     :      0.70s CPU      0.72s WALL (       1 calls)
     electrons    :     13.20s CPU     13.76s WALL (       1 calls)

     Called by init_run:
     wfcinit      :      0.44s CPU      0.46s WALL (       1 calls)
     potinit      :      0.03s CPU      0.03s WALL (       1 calls)
     hinit0       :      0.20s CPU      0.20s WALL (       1 calls)

     Called by electrons:
     c_bands      :     11.09s CPU     11.53s WALL (       9 calls)
     sum_band     :      1.81s CPU      1.89s WALL (       9 calls)
     v_of_rho     :      0.12s CPU      0.12s WALL (       9 calls)
     newd         :      0.20s CPU      0.23s WALL (       9 calls)
     mix_rho      :      0.02s CPU      0.02s WALL (       9 calls)

     Called by c_bands:
     init_us_2    :      0.14s CPU      0.15s WALL (     760 calls)
     cegterg      :     10.58s CPU     11.01s WALL (     360 calls)

     Called by sum_band:
     sum_band:bec :      0.01s CPU      0.01s WALL (     360 calls)
     addusdens    :      0.33s CPU      0.33s WALL (       9 calls)

     Called by *egterg:
     h_psi        :      7.20s CPU      7.54s WALL (    1753 calls)
     s_psi        :      0.46s CPU      0.48s WALL (    1753 calls)
     g_psi        :      0.04s CPU      0.05s WALL (    1353 calls)
     cdiaghg      :      1.00s CPU      1.03s WALL (    1673 calls)

     Called by h_psi:
     h_psi:pot    :      7.18s CPU      7.51s WALL (    1753 calls)
     h_psi:calbec :      0.73s CPU      0.77s WALL (    1753 calls)
     vloc_psi     :      5.97s CPU      6.24s WALL (    1753 calls)
     add_vuspsi   :      0.48s CPU      0.50s WALL (    1753 calls)

     General routines
     calbec       :      0.97s CPU      1.02s WALL (    2113 calls)
     fft          :      0.06s CPU      0.07s WALL (     189 calls)
     ffts         :      0.00s CPU      0.00s WALL (      18 calls)
     fftw         :      6.60s CPU      6.90s WALL (   41354 calls)

     Parallel routines
     fft_scatt_xy :      0.41s CPU      0.42s WALL (   41561 calls)
     fft_scatt_yz :      3.11s CPU      3.26s WALL (   41561 calls)

     PWSCF        :     15.37s CPU     16.05s WALL


   This run was terminated on:  13:34:38  10Mar2022            

=------------------------------------------------------------------------------=
   JOB DONE.
=------------------------------------------------------------------------------=
