
     Program PWSCF v.6.4.1 starts on  8Sep2022 at 12:31:24 

     This program is part of the open-source Quantum ESPRESSO suite
     for quantum simulation of materials; please cite
         "P. Giannozzi et al., J. Phys.:Condens. Matter 21 395502 (2009);
         "P. Giannozzi et al., J. Phys.:Condens. Matter 29 465901 (2017);
          URL http://www.quantum-espresso.org", 
     in publications or presentations arising from this work. More details at
     http://www.quantum-espresso.org/quote

     Parallel version (MPI), running on     6 processors

     MPI processes distributed on     1 nodes
     R & G space division:  proc/nbgrp/npool/nimage =       6
     Reading input from distance-2.4.in

     Current dimensions of program PWSCF are:
     Max number of different atomic species (ntypx) = 10
     Max number of k-points (npk) =  40000
     Max angular momentum in pseudopotentials (lmaxx) =  3

     IMPORTANT: XC functional enforced from input :
     Exchange-correlation      = RVV10 ( 1  4 13  4 3 0)
     Any further DFT definition will be discarded
     Please, verify this is what you really want

               file H.pbe-rrkjus.UPF: wavefunction(s)  1S renormalized
               file Cu.pbe-dn-rrkjus_psl.1.0.0.UPF: wavefunction(s)  3D renormalized

     Subspace diagonalization in iterative solution of the eigenvalue problem:
     a serial algorithm will be used


     Parallelization info
     --------------------
     sticks:   dense  smooth     PW     G-vecs:    dense   smooth      PW
     Min        3051    1746    432               270999   117096   14629
     Max        3053    1747    437               271001   117099   14630
     Sum       18313   10477   2611              1626001   702581   87777



     bravais-lattice index     =            4
     lattice parameter (alat)  =      23.2937  a.u.
     unit-cell volume          =    8879.8548 (a.u.)^3
     number of atoms/cell      =           52
     number of atomic types    =            3
     number of electrons       =       209.00
     number of Kohn-Sham states=          126
     kinetic-energy cutoff     =      70.0000  Ry
     charge density cutoff     =     490.0000  Ry
     convergence threshold     =      1.0E-06
     mixing beta               =       0.7000
     number of iterations used =            8  plain     mixing
     Exchange-correlation      = RVV10 ( 1  4 13  4 3 0)

     celldm(1)=  23.293684  celldm(2)=   0.000000  celldm(3)=   0.811261
     celldm(4)=   0.000000  celldm(5)=   0.000000  celldm(6)=   0.000000

     crystal axes: (cart. coord. in units of alat)
               a(1) = (   1.000000   0.000000   0.000000 )  
               a(2) = (  -0.500000   0.866025   0.000000 )  
               a(3) = (   0.000000   0.000000   0.811261 )  

     reciprocal axes: (cart. coord. in units 2 pi/alat)
               b(1) = (  1.000000  0.577350 -0.000000 )  
               b(2) = (  0.000000  1.154701  0.000000 )  
               b(3) = (  0.000000 -0.000000  1.232649 )  


     PseudoPot. # 1 for H  read from file:
     /home/cristian/Escritorio/Proyecto_Grafeno/pseudopotenciales/H.pbe-rrkjus.UPF
     MD5 check sum: 7cc9d459525c9a0585f487a71c3c9563
     Pseudo is Ultrasoft, Zval =  1.0
     Generated by new atomic code, or converted to UPF format
     Using radial grid of 1061 points,  2 beta functions with: 
                l(1) =   0
                l(2) =   0
     Q(r) pseudized with 0 coefficients 


     PseudoPot. # 2 for C  read from file:
     /home/cristian/Escritorio/Proyecto_Grafeno/pseudopotenciales/C.pbe-n-rrkjus_psl.1.0.0.UPF
     MD5 check sum: 1fdd950c42eb37d8afe3dd2f8d12311e
     Pseudo is Ultrasoft + core correction, Zval =  4.0
     Generated using "atomic" code by A. Dal Corso v.6.3MaX
     Using radial grid of 1073 points,  4 beta functions with: 
                l(1) =   0
                l(2) =   0
                l(3) =   1
                l(4) =   1
     Q(r) pseudized with 0 coefficients 


     PseudoPot. # 3 for Cu read from file:
     /home/cristian/Escritorio/Proyecto_Grafeno/pseudopotenciales/Cu.pbe-dn-rrkjus_psl.1.0.0.UPF
     MD5 check sum: ba3d6c84e19846e79d48cdc68ff7152b
     Pseudo is Ultrasoft + core correction, Zval = 11.0
     Generated using "atomic" code by A. Dal Corso v.6.3
     Using radial grid of 1199 points,  6 beta functions with: 
                l(1) =   0
                l(2) =   0
                l(3) =   1
                l(4) =   1
                l(5) =   2
                l(6) =   2
     Q(r) pseudized with 0 coefficients 


     vdW kernel table read from file rVV10_kernel_table
     MD5 check sum: b8e2538accc0c0b3206b45ba4daaba6c

     atomic species   valence    mass     pseudopotential
        H              1.00     1.00794     H ( 1.00)
        C              4.00    12.01070     C ( 1.00)
        Cu            11.00    63.54600     Cu( 1.00)

     Starting magnetic structure 
     atomic species   magnetization
        H            0.500
        C            0.300
        Cu           0.800

     No symmetry found


                                    s                        frac. trans.

      isym =  1     identity                                     

 cryst.   s( 1) = (     1          0          0      )
                  (     0          1          0      )
                  (     0          0          1      )

 cart.    s( 1) = (  1.0000000  0.0000000  0.0000000 )
                  (  0.0000000  1.0000000  0.0000000 )
                  (  0.0000000  0.0000000  1.0000000 )


     point group C_1 (1)    
     there are  1 classes
     the character table:

       E    
A      1.00

     the symmetry operations in each class and the name of the first element:

     E        1
          identity                                               

   Cartesian axes

     site n.     atom                  positions (alat units)
         1           H   tau(   1) = (   0.2361603   0.4618802   0.1947027  )
         2           H   tau(   2) = (   0.2971730   0.4618802   0.1947027  )
         3           C   tau(   3) = (   0.0000000   0.0000000   0.0000000  )
         4           C   tau(   4) = (   0.0000000   0.1154701   0.0000000  )
         5           C   tau(   5) = (  -0.1000000   0.1732051   0.0000000  )
         6           C   tau(   6) = (  -0.1000000   0.2886751   0.0000000  )
         7           C   tau(   7) = (  -0.2000000   0.3464102   0.0000000  )
         8           C   tau(   8) = (  -0.2000000   0.4618802   0.0000000  )
         9           C   tau(   9) = (  -0.3000000   0.5196152   0.0000000  )
        10           C   tau(  10) = (  -0.3000000   0.6350853   0.0000000  )
        11           C   tau(  11) = (  -0.4000000   0.6928203   0.0000000  )
        12           C   tau(  12) = (  -0.4000000   0.8082904   0.0000000  )
        13           C   tau(  13) = (   0.2000000   0.0000000   0.0000000  )
        14           C   tau(  14) = (   0.2000000   0.1154701   0.0000000  )
        15           C   tau(  15) = (   0.1000000   0.1732051   0.0000000  )
        16           C   tau(  16) = (   0.1000000   0.2886751   0.0000000  )
        17           C   tau(  17) = (   0.0000000   0.3464102   0.0000000  )
        18           C   tau(  18) = (   0.0000000   0.4618802   0.0000000  )
        19           C   tau(  19) = (  -0.1000000   0.5196152   0.0000000  )
        20           C   tau(  20) = (  -0.1000000   0.6350853   0.0000000  )
        21           C   tau(  21) = (  -0.2000000   0.6928203   0.0000000  )
        22           C   tau(  22) = (  -0.2000000   0.8082904   0.0000000  )
        23           C   tau(  23) = (   0.4000000   0.0000000   0.0000000  )
        24           C   tau(  24) = (   0.4000000   0.1154701   0.0000000  )
        25           C   tau(  25) = (   0.3000000   0.1732051   0.0000000  )
        26           C   tau(  26) = (   0.3000000   0.2886751   0.0000000  )
        27           C   tau(  27) = (   0.2000000   0.3464102   0.0000000  )
        28           Cu  tau(  28) = (   0.2000000   0.4618802   0.0000000  )
        29           C   tau(  29) = (   0.1000000   0.5196152   0.0000000  )
        30           C   tau(  30) = (   0.1000000   0.6350853   0.0000000  )
        31           C   tau(  31) = (   0.0000000   0.6928203   0.0000000  )
        32           C   tau(  32) = (   0.0000000   0.8082904   0.0000000  )
        33           C   tau(  33) = (   0.6000000   0.0000000   0.0000000  )
        34           C   tau(  34) = (   0.6000000   0.1154701   0.0000000  )
        35           C   tau(  35) = (   0.5000000   0.1732051   0.0000000  )
        36           C   tau(  36) = (   0.5000000   0.2886751   0.0000000  )
        37           C   tau(  37) = (   0.4000000   0.3464102   0.0000000  )
        38           C   tau(  38) = (   0.4000000   0.4618802   0.0000000  )
        39           C   tau(  39) = (   0.3000000   0.5196152   0.0000000  )
        40           C   tau(  40) = (   0.3000000   0.6350853   0.0000000  )
        41           C   tau(  41) = (   0.2000000   0.6928203   0.0000000  )
        42           C   tau(  42) = (   0.2000000   0.8082904   0.0000000  )
        43           C   tau(  43) = (   0.8000000   0.0000000   0.0000000  )
        44           C   tau(  44) = (   0.8000000   0.1154701   0.0000000  )
        45           C   tau(  45) = (   0.7000000   0.1732051   0.0000000  )
        46           C   tau(  46) = (   0.7000000   0.2886751   0.0000000  )
        47           C   tau(  47) = (   0.6000000   0.3464102   0.0000000  )
        48           C   tau(  48) = (   0.6000000   0.4618802   0.0000000  )
        49           C   tau(  49) = (   0.5000000   0.5196152   0.0000000  )
        50           C   tau(  50) = (   0.5000000   0.6350853   0.0000000  )
        51           C   tau(  51) = (   0.4000000   0.6928203   0.0000000  )
        52           C   tau(  52) = (   0.4000000   0.8082904   0.0000000  )

   Crystallographic axes

     site n.     atom                  positions (cryst. coord.)
         1           H   tau(   1) = (  0.5028270  0.5333333  0.2400000  )
         2           H   tau(   2) = (  0.5638397  0.5333333  0.2400000  )
         3           C   tau(   3) = (  0.0000000  0.0000000  0.0000000  )
         4           C   tau(   4) = (  0.0666667  0.1333333  0.0000000  )
         5           C   tau(   5) = (  0.0000000  0.2000000  0.0000000  )
         6           C   tau(   6) = (  0.0666667  0.3333333  0.0000000  )
         7           C   tau(   7) = (  0.0000000  0.4000000  0.0000000  )
         8           C   tau(   8) = (  0.0666667  0.5333333  0.0000000  )
         9           C   tau(   9) = (  0.0000000  0.6000000  0.0000000  )
        10           C   tau(  10) = (  0.0666667  0.7333333  0.0000000  )
        11           C   tau(  11) = (  0.0000000  0.8000000  0.0000000  )
        12           C   tau(  12) = (  0.0666667  0.9333333  0.0000000  )
        13           C   tau(  13) = (  0.2000000  0.0000000  0.0000000  )
        14           C   tau(  14) = (  0.2666667  0.1333333  0.0000000  )
        15           C   tau(  15) = (  0.2000000  0.2000000  0.0000000  )
        16           C   tau(  16) = (  0.2666667  0.3333333  0.0000000  )
        17           C   tau(  17) = (  0.2000000  0.4000000  0.0000000  )
        18           C   tau(  18) = (  0.2666667  0.5333333  0.0000000  )
        19           C   tau(  19) = (  0.2000000  0.6000000  0.0000000  )
        20           C   tau(  20) = (  0.2666667  0.7333333  0.0000000  )
        21           C   tau(  21) = (  0.2000000  0.8000000  0.0000000  )
        22           C   tau(  22) = (  0.2666667  0.9333333  0.0000000  )
        23           C   tau(  23) = (  0.4000000  0.0000000  0.0000000  )
        24           C   tau(  24) = (  0.4666667  0.1333333  0.0000000  )
        25           C   tau(  25) = (  0.4000000  0.2000000  0.0000000  )
        26           C   tau(  26) = (  0.4666667  0.3333333  0.0000000  )
        27           C   tau(  27) = (  0.4000000  0.4000000  0.0000000  )
        28           Cu  tau(  28) = (  0.4666667  0.5333333  0.0000000  )
        29           C   tau(  29) = (  0.4000000  0.6000000  0.0000000  )
        30           C   tau(  30) = (  0.4666667  0.7333333  0.0000000  )
        31           C   tau(  31) = (  0.4000000  0.8000000  0.0000000  )
        32           C   tau(  32) = (  0.4666667  0.9333333  0.0000000  )
        33           C   tau(  33) = (  0.6000000  0.0000000  0.0000000  )
        34           C   tau(  34) = (  0.6666667  0.1333333  0.0000000  )
        35           C   tau(  35) = (  0.6000000  0.2000000  0.0000000  )
        36           C   tau(  36) = (  0.6666667  0.3333333  0.0000000  )
        37           C   tau(  37) = (  0.6000000  0.4000000  0.0000000  )
        38           C   tau(  38) = (  0.6666667  0.5333333  0.0000000  )
        39           C   tau(  39) = (  0.6000000  0.6000000  0.0000000  )
        40           C   tau(  40) = (  0.6666667  0.7333333  0.0000000  )
        41           C   tau(  41) = (  0.6000000  0.8000000  0.0000000  )
        42           C   tau(  42) = (  0.6666667  0.9333333  0.0000000  )
        43           C   tau(  43) = (  0.8000000  0.0000000  0.0000000  )
        44           C   tau(  44) = (  0.8666667  0.1333333  0.0000000  )
        45           C   tau(  45) = (  0.8000000  0.2000000  0.0000000  )
        46           C   tau(  46) = (  0.8666667  0.3333333  0.0000000  )
        47           C   tau(  47) = (  0.8000000  0.4000000  0.0000000  )
        48           C   tau(  48) = (  0.8666667  0.5333333  0.0000000  )
        49           C   tau(  49) = (  0.8000000  0.6000000  0.0000000  )
        50           C   tau(  50) = (  0.8666667  0.7333333  0.0000000  )
        51           C   tau(  51) = (  0.8000000  0.8000000  0.0000000  )
        52           C   tau(  52) = (  0.8666667  0.9333333  0.0000000  )

     number of k points=     1  Marzari-Vanderbilt smearing, width (Ry)=  0.0010
                       cart. coord. in units 2pi/alat
        k(    1) = (   0.0000000   0.0000000   0.0000000), wk =   1.0000000

                       cryst. coord.
        k(    1) = (   0.0000000   0.0000000   0.0000000), wk =   1.0000000

     Dense  grid:  1626001 G-vectors     FFT dimensions: ( 180, 180, 135)

     Smooth grid:   702581 G-vectors     FFT dimensions: ( 125, 125, 108)

     Dynamical RAM for                 wfc:      28.14 MB

     Dynamical RAM for     wfc (w. buffer):      84.42 MB

     Dynamical RAM for           str. fact:      12.41 MB

     Dynamical RAM for           local pot:       0.00 MB

     Dynamical RAM for          nlocal pot:      92.46 MB

     Dynamical RAM for                qrad:      19.73 MB

     Dynamical RAM for          rho,v,vnew:      58.92 MB

     Dynamical RAM for               rhoin:      19.64 MB

     Dynamical RAM for            rho*nmix:     132.32 MB

     Dynamical RAM for           G-vectors:      16.40 MB

     Dynamical RAM for          h,s,v(r/c):      11.63 MB

     Dynamical RAM for          <psi|beta>:       0.80 MB

     Dynamical RAM for                 psi:     112.56 MB

     Dynamical RAM for                hpsi:     112.56 MB

     Dynamical RAM for                spsi:     112.56 MB

     Dynamical RAM for      wfcinit/wfcrot:      93.45 MB

     Dynamical RAM for           addusdens:     975.89 MB

     Estimated static dynamical RAM per process >     486.96 MB

     Estimated max dynamical RAM per process >       1.43 GB

     Estimated total dynamical RAM >       8.57 GB
     Generating pointlists ...
     new r_m :   0.0252 (alat units)  0.5862 (a.u.) for type    1
     new r_m :   0.0476 (alat units)  1.1095 (a.u.) for type    2
     new r_m :   0.0476 (alat units)  1.1095 (a.u.) for type    3

     Check: negative core charge=   -0.000002

     Initial potential from superposition of free atoms

     starting charge  208.80532, renormalised to  209.00000

     negative rho (up, down):  6.886E-05 1.226E-02


---------------------------------------------------------------------------------
Carrying out rVV10 run using the following parameters:
Nqs =      20    Nr_points =    1024   r_max =   100.000
b_value =  6.30000    beta =  0.00901
     q_mesh =  0.00010000  0.00030000  0.00058939  0.00100810
               0.00161396  0.00249058  0.00375900  0.00559430
               0.00824984  0.01209221  0.01765183  0.02569619
               0.03733578  0.05417739  0.07854596  0.11380545
               0.16482331  0.23864234  0.34545298  0.50000000

Gradients computed in Reciprocal space

---------------------------------------------------------------------------------


     Starting wfcs are  207 randomized atomic wfcs

     total cpu time spent up to now is       78.3 secs

     Self-consistent Calculation

     iteration #  1     ecut=    70.00 Ry     beta= 0.70
     Davidson diagonalization with overlap
     ethr =  1.00E-02,  avg # of iterations =  2.5

     negative rho (up, down):  1.678E-04 1.198E-02

     total cpu time spent up to now is      209.3 secs

     total energy              =    -731.03368659 Ry
     Harris-Foulkes estimate   =    -734.81552800 Ry
     estimated scf accuracy    <      10.82276976 Ry

     total magnetization       =     3.45 Bohr mag/cell
     absolute magnetization    =     4.55 Bohr mag/cell

     iteration #  2     ecut=    70.00 Ry     beta= 0.70
     Davidson diagonalization with overlap
     ethr =  5.18E-03,  avg # of iterations =  4.0

     negative rho (up, down):  2.059E-04 1.032E-02

     total cpu time spent up to now is      330.6 secs

     total energy              =    -731.25523130 Ry
     Harris-Foulkes estimate   =    -737.97013111 Ry
     estimated scf accuracy    <      14.42625911 Ry

     total magnetization       =     3.00 Bohr mag/cell
     absolute magnetization    =     3.14 Bohr mag/cell

     iteration #  3     ecut=    70.00 Ry     beta= 0.70
     Davidson diagonalization with overlap
     ethr =  5.18E-03,  avg # of iterations =  4.5

     negative rho (up, down):  2.621E-04 8.173E-03

     total cpu time spent up to now is      442.9 secs

     total energy              =    -731.52538170 Ry
     Harris-Foulkes estimate   =    -735.82805840 Ry
     estimated scf accuracy    <      14.24100784 Ry

     total magnetization       =     3.00 Bohr mag/cell
     absolute magnetization    =     3.45 Bohr mag/cell

     iteration #  4     ecut=    70.00 Ry     beta= 0.70
     Davidson diagonalization with overlap
     ethr =  5.18E-03,  avg # of iterations =  3.0

     negative rho (up, down):  2.985E-04 8.746E-03

     total cpu time spent up to now is      560.7 secs

     total energy              =    -733.97138971 Ry
     Harris-Foulkes estimate   =    -735.73876525 Ry
     estimated scf accuracy    <       8.98451700 Ry

     total magnetization       =     3.00 Bohr mag/cell
     absolute magnetization    =     3.11 Bohr mag/cell

     iteration #  5     ecut=    70.00 Ry     beta= 0.70
     Davidson diagonalization with overlap
     ethr =  4.30E-03,  avg # of iterations =  1.5

     negative rho (up, down):  3.443E-04 1.239E-02

     total cpu time spent up to now is      661.4 secs

     total energy              =    -734.59690698 Ry
     Harris-Foulkes estimate   =    -734.84804980 Ry
     estimated scf accuracy    <       0.82296840 Ry

     total magnetization       =     1.00 Bohr mag/cell
     absolute magnetization    =     1.33 Bohr mag/cell

     iteration #  6     ecut=    70.00 Ry     beta= 0.70
     Davidson diagonalization with overlap
     ethr =  3.94E-04,  avg # of iterations =  8.5

     negative rho (up, down):  4.258E-04 1.485E-02

     total cpu time spent up to now is      783.1 secs

     total energy              =    -734.68050706 Ry
     Harris-Foulkes estimate   =    -734.79438540 Ry
     estimated scf accuracy    <       0.36991048 Ry

     total magnetization       =     1.00 Bohr mag/cell
     absolute magnetization    =     1.26 Bohr mag/cell

     iteration #  7     ecut=    70.00 Ry     beta= 0.70
     Davidson diagonalization with overlap
     ethr =  1.77E-04,  avg # of iterations =  5.5

     negative rho (up, down):  6.296E-04 2.455E-03

     total cpu time spent up to now is      892.2 secs

     total energy              =    -734.73267150 Ry
     Harris-Foulkes estimate   =    -734.74813345 Ry
     estimated scf accuracy    <       0.06818994 Ry

     total magnetization       =     1.00 Bohr mag/cell
     absolute magnetization    =     1.21 Bohr mag/cell

     iteration #  8     ecut=    70.00 Ry     beta= 0.70
     Davidson diagonalization with overlap
     ethr =  3.26E-05,  avg # of iterations =  8.5

     negative rho (up, down):  7.311E-04 9.649E-03

     total cpu time spent up to now is     1011.9 secs

     total energy              =    -734.73618023 Ry
     Harris-Foulkes estimate   =    -734.75271528 Ry
     estimated scf accuracy    <       0.07731241 Ry

     total magnetization       =     1.00 Bohr mag/cell
     absolute magnetization    =     1.16 Bohr mag/cell

     iteration #  9     ecut=    70.00 Ry     beta= 0.70
     Davidson diagonalization with overlap
     ethr =  3.26E-05,  avg # of iterations =  3.0

     negative rho (up, down):  7.311E-04 7.937E-03

     total cpu time spent up to now is     1113.0 secs

     total energy              =    -734.74210555 Ry
     Harris-Foulkes estimate   =    -734.74420877 Ry
     estimated scf accuracy    <       0.01602870 Ry

     total magnetization       =     1.00 Bohr mag/cell
     absolute magnetization    =     1.13 Bohr mag/cell

     iteration # 10     ecut=    70.00 Ry     beta= 0.70
     Davidson diagonalization with overlap
     ethr =  7.67E-06,  avg # of iterations =  3.0

     negative rho (up, down):  7.050E-04 6.040E-03

     total cpu time spent up to now is     1215.9 secs

     total energy              =    -734.74259020 Ry
     Harris-Foulkes estimate   =    -734.74409732 Ry
     estimated scf accuracy    <       0.01896133 Ry

     total magnetization       =     1.00 Bohr mag/cell
     absolute magnetization    =     1.12 Bohr mag/cell

     iteration # 11     ecut=    70.00 Ry     beta= 0.70
     Davidson diagonalization with overlap
     ethr =  7.67E-06,  avg # of iterations =  1.0

     negative rho (up, down):  6.942E-04 4.778E-03

     total cpu time spent up to now is     1313.4 secs

     total energy              =    -734.74304384 Ry
     Harris-Foulkes estimate   =    -734.74388525 Ry
     estimated scf accuracy    <       0.01588632 Ry

     total magnetization       =     1.00 Bohr mag/cell
     absolute magnetization    =     1.10 Bohr mag/cell

     iteration # 12     ecut=    70.00 Ry     beta= 0.70
     Davidson diagonalization with overlap
     ethr =  7.60E-06,  avg # of iterations =  1.0

     negative rho (up, down):  6.672E-04 2.166E-03

     total cpu time spent up to now is     1410.4 secs

     total energy              =    -734.74345832 Ry
     Harris-Foulkes estimate   =    -734.74359174 Ry
     estimated scf accuracy    <       0.00217685 Ry

     total magnetization       =     1.00 Bohr mag/cell
     absolute magnetization    =     1.09 Bohr mag/cell

     iteration # 13     ecut=    70.00 Ry     beta= 0.70
     Davidson diagonalization with overlap
     ethr =  1.04E-06,  avg # of iterations =  1.0

     negative rho (up, down):  6.655E-04 2.046E-03

     total cpu time spent up to now is     1505.0 secs

     total energy              =    -734.74350922 Ry
     Harris-Foulkes estimate   =    -734.74356572 Ry
     estimated scf accuracy    <       0.00142901 Ry

     total magnetization       =     1.00 Bohr mag/cell
     absolute magnetization    =     1.09 Bohr mag/cell

     iteration # 14     ecut=    70.00 Ry     beta= 0.70
     Davidson diagonalization with overlap
     ethr =  6.84E-07,  avg # of iterations =  1.0

     negative rho (up, down):  6.599E-04 1.802E-03

     total cpu time spent up to now is     1599.8 secs

     total energy              =    -734.74354710 Ry
     Harris-Foulkes estimate   =    -734.74356018 Ry
     estimated scf accuracy    <       0.00023486 Ry

     total magnetization       =     1.00 Bohr mag/cell
     absolute magnetization    =     1.08 Bohr mag/cell

     iteration # 15     ecut=    70.00 Ry     beta= 0.70
     Davidson diagonalization with overlap
     ethr =  1.12E-07,  avg # of iterations =  2.5

     negative rho (up, down):  6.575E-04 1.782E-03

     total cpu time spent up to now is     1695.6 secs

     total energy              =    -734.74355727 Ry
     Harris-Foulkes estimate   =    -734.74356071 Ry
     estimated scf accuracy    <       0.00014069 Ry

     total magnetization       =     1.00 Bohr mag/cell
     absolute magnetization    =     1.08 Bohr mag/cell

     iteration # 16     ecut=    70.00 Ry     beta= 0.70
     Davidson diagonalization with overlap
     ethr =  6.73E-08,  avg # of iterations =  1.0

     negative rho (up, down):  6.563E-04 1.805E-03

     total cpu time spent up to now is     1791.1 secs

     total energy              =    -734.74356314 Ry
     Harris-Foulkes estimate   =    -734.74356345 Ry
     estimated scf accuracy    <       0.00015898 Ry

     total magnetization       =     1.00 Bohr mag/cell
     absolute magnetization    =     1.07 Bohr mag/cell

     iteration # 17     ecut=    70.00 Ry     beta= 0.70
     Davidson diagonalization with overlap
     ethr =  6.73E-08,  avg # of iterations =  1.0

     negative rho (up, down):  6.562E-04 1.793E-03

     total cpu time spent up to now is     1887.3 secs

     total energy              =    -734.74356556 Ry
     Harris-Foulkes estimate   =    -734.74356516 Ry
     estimated scf accuracy    <       0.00008466 Ry

     total magnetization       =     1.00 Bohr mag/cell
     absolute magnetization    =     1.07 Bohr mag/cell

     iteration # 18     ecut=    70.00 Ry     beta= 0.70
     Davidson diagonalization with overlap
     ethr =  4.05E-08,  avg # of iterations =  1.0

     negative rho (up, down):  6.557E-04 1.803E-03

     total cpu time spent up to now is     1982.5 secs

     total energy              =    -734.74356673 Ry
     Harris-Foulkes estimate   =    -734.74356739 Ry
     estimated scf accuracy    <       0.00013829 Ry

     total magnetization       =     1.00 Bohr mag/cell
     absolute magnetization    =     1.07 Bohr mag/cell

     iteration # 19     ecut=    70.00 Ry     beta= 0.70
     Davidson diagonalization with overlap
     ethr =  4.05E-08,  avg # of iterations =  1.0

     negative rho (up, down):  6.557E-04 1.796E-03

     total cpu time spent up to now is     2077.6 secs

     total energy              =    -734.74356626 Ry
     Harris-Foulkes estimate   =    -734.74356759 Ry
     estimated scf accuracy    <       0.00009885 Ry

     total magnetization       =     1.00 Bohr mag/cell
     absolute magnetization    =     1.07 Bohr mag/cell

     iteration # 20     ecut=    70.00 Ry     beta= 0.70
     Davidson diagonalization with overlap
     ethr =  4.05E-08,  avg # of iterations =  1.5

     negative rho (up, down):  6.557E-04 1.798E-03

     total cpu time spent up to now is     2173.1 secs

     total energy              =    -734.74356803 Ry
     Harris-Foulkes estimate   =    -734.74356887 Ry
     estimated scf accuracy    <       0.00007788 Ry

     total magnetization       =     1.00 Bohr mag/cell
     absolute magnetization    =     1.07 Bohr mag/cell

     iteration # 21     ecut=    70.00 Ry     beta= 0.70
     Davidson diagonalization with overlap
     ethr =  3.73E-08,  avg # of iterations =  1.0

     negative rho (up, down):  6.577E-04 1.768E-03

     total cpu time spent up to now is     2269.0 secs

     total energy              =    -734.74356666 Ry
     Harris-Foulkes estimate   =    -734.74356870 Ry
     estimated scf accuracy    <       0.00006051 Ry

     total magnetization       =     1.00 Bohr mag/cell
     absolute magnetization    =     1.07 Bohr mag/cell

     iteration # 22     ecut=    70.00 Ry     beta= 0.70
     Davidson diagonalization with overlap
     ethr =  2.90E-08,  avg # of iterations =  1.5

     negative rho (up, down):  6.577E-04 1.774E-03

     total cpu time spent up to now is     2366.2 secs

     total energy              =    -734.74356749 Ry
     Harris-Foulkes estimate   =    -734.74357029 Ry
     estimated scf accuracy    <       0.00003781 Ry

     total magnetization       =     1.00 Bohr mag/cell
     absolute magnetization    =     1.07 Bohr mag/cell

     iteration # 23     ecut=    70.00 Ry     beta= 0.70
     Davidson diagonalization with overlap
     ethr =  1.81E-08,  avg # of iterations =  1.0

     negative rho (up, down):  6.573E-04 1.776E-03

     total cpu time spent up to now is     2461.2 secs

     total energy              =    -734.74356899 Ry
     Harris-Foulkes estimate   =    -734.74356932 Ry
     estimated scf accuracy    <       0.00000930 Ry

     total magnetization       =     1.00 Bohr mag/cell
     absolute magnetization    =     1.07 Bohr mag/cell

     iteration # 24     ecut=    70.00 Ry     beta= 0.70
     Davidson diagonalization with overlap
     ethr =  4.45E-09,  avg # of iterations =  2.0

     negative rho (up, down):  6.573E-04 1.783E-03

     total cpu time spent up to now is     2558.3 secs

     total energy              =    -734.74356909 Ry
     Harris-Foulkes estimate   =    -734.74356959 Ry
     estimated scf accuracy    <       0.00000769 Ry

     total magnetization       =     1.00 Bohr mag/cell
     absolute magnetization    =     1.07 Bohr mag/cell

     iteration # 25     ecut=    70.00 Ry     beta= 0.70
     Davidson diagonalization with overlap
     ethr =  3.68E-09,  avg # of iterations =  2.0

     negative rho (up, down):  6.571E-04 1.787E-03

     total cpu time spent up to now is     2656.1 secs

     total energy              =    -734.74356949 Ry
     Harris-Foulkes estimate   =    -734.74356973 Ry
     estimated scf accuracy    <       0.00000417 Ry

     total magnetization       =     1.00 Bohr mag/cell
     absolute magnetization    =     1.07 Bohr mag/cell

     iteration # 26     ecut=    70.00 Ry     beta= 0.70
     Davidson diagonalization with overlap
     ethr =  2.00E-09,  avg # of iterations =  1.0

     negative rho (up, down):  6.570E-04 1.785E-03

     total cpu time spent up to now is     2749.7 secs

     total energy              =    -734.74356954 Ry
     Harris-Foulkes estimate   =    -734.74356960 Ry
     estimated scf accuracy    <       0.00000151 Ry

     total magnetization       =     1.00 Bohr mag/cell
     absolute magnetization    =     1.07 Bohr mag/cell

     iteration # 27     ecut=    70.00 Ry     beta= 0.70
     Davidson diagonalization with overlap
     ethr =  7.22E-10,  avg # of iterations =  2.5

     negative rho (up, down):  6.570E-04 1.785E-03

     total cpu time spent up to now is     2845.6 secs

     total energy              =    -734.74356961 Ry
     Harris-Foulkes estimate   =    -734.74356964 Ry
     estimated scf accuracy    <       0.00000186 Ry

     total magnetization       =     1.00 Bohr mag/cell
     absolute magnetization    =     1.07 Bohr mag/cell

     iteration # 28     ecut=    70.00 Ry     beta= 0.70
     Davidson diagonalization with overlap
     ethr =  7.22E-10,  avg # of iterations =  1.0

     negative rho (up, down):  6.569E-04 1.787E-03

     total cpu time spent up to now is     2938.5 secs

     total energy              =    -734.74356963 Ry
     Harris-Foulkes estimate   =    -734.74356965 Ry
     estimated scf accuracy    <       0.00000133 Ry

     total magnetization       =     1.00 Bohr mag/cell
     absolute magnetization    =     1.07 Bohr mag/cell

     iteration # 29     ecut=    70.00 Ry     beta= 0.70
     Davidson diagonalization with overlap
     ethr =  6.35E-10,  avg # of iterations =  1.5

     negative rho (up, down):  6.568E-04 1.785E-03

     total cpu time spent up to now is     3034.9 secs

     total energy              =    -734.74356965 Ry
     Harris-Foulkes estimate   =    -734.74356968 Ry
     estimated scf accuracy    <       0.00000119 Ry

     total magnetization       =     1.00 Bohr mag/cell
     absolute magnetization    =     1.07 Bohr mag/cell

     iteration # 30     ecut=    70.00 Ry     beta= 0.70
     Davidson diagonalization with overlap
     ethr =  5.69E-10,  avg # of iterations =  1.5

     negative rho (up, down):  6.569E-04 1.784E-03

     total cpu time spent up to now is     3135.5 secs

     total energy              =    -734.74356966 Ry
     Harris-Foulkes estimate   =    -734.74356971 Ry
     estimated scf accuracy    <       0.00000137 Ry

     total magnetization       =     1.00 Bohr mag/cell
     absolute magnetization    =     1.07 Bohr mag/cell

     iteration # 31     ecut=    70.00 Ry     beta= 0.70
     Davidson diagonalization with overlap
     ethr =  5.69E-10,  avg # of iterations =  2.0

     negative rho (up, down):  6.569E-04 1.779E-03

     total cpu time spent up to now is     3247.3 secs

     total energy              =    -734.74356960 Ry
     Harris-Foulkes estimate   =    -734.74356979 Ry
     estimated scf accuracy    <       0.00000171 Ry

     total magnetization       =     1.00 Bohr mag/cell
     absolute magnetization    =     1.07 Bohr mag/cell

     iteration # 32     ecut=    70.00 Ry     beta= 0.70
     Davidson diagonalization with overlap
     ethr =  5.69E-10,  avg # of iterations =  2.0

     negative rho (up, down):  6.570E-04 1.778E-03

     Magnetic moment per site:
     atom:    1    charge:    0.2128    magn:    0.0001    constr:    0.0000
     atom:    2    charge:    0.2123    magn:   -0.0001    constr:    0.0000
     atom:    3    charge:    1.7158    magn:    0.0018    constr:    0.0000
     atom:    4    charge:    1.7154    magn:    0.0019    constr:    0.0000
     atom:    5    charge:    1.7169    magn:    0.0000    constr:    0.0000
     atom:    6    charge:    1.7146    magn:   -0.0000    constr:    0.0000
     atom:    7    charge:    1.7171    magn:   -0.0000    constr:    0.0000
     atom:    8    charge:    1.7152    magn:    0.0014    constr:    0.0000
     atom:    9    charge:    1.7157    magn:    0.0014    constr:    0.0000
     atom:   10    charge:    1.7171    magn:   -0.0010    constr:    0.0000
     atom:   11    charge:    1.7160    magn:    0.0006    constr:    0.0000
     atom:   12    charge:    1.7171    magn:   -0.0009    constr:    0.0000
     atom:   13    charge:    1.7160    magn:    0.0006    constr:    0.0000
     atom:   14    charge:    1.7168    magn:   -0.0011    constr:    0.0000
     atom:   15    charge:    1.7132    magn:    0.0083    constr:    0.0000
     atom:   16    charge:    1.7105    magn:    0.0128    constr:    0.0000
     atom:   17    charge:    1.7216    magn:    0.0032    constr:    0.0000
     atom:   18    charge:    1.7107    magn:    0.0121    constr:    0.0000
     atom:   19    charge:    1.7128    magn:    0.0059    constr:    0.0000
     atom:   20    charge:    1.7169    magn:   -0.0008    constr:    0.0000
     atom:   21    charge:    1.7160    magn:    0.0005    constr:    0.0000
     atom:   22    charge:    1.7170    magn:   -0.0009    constr:    0.0000
     atom:   23    charge:    1.7158    magn:    0.0017    constr:    0.0000
     atom:   24    charge:    1.7153    magn:    0.0018    constr:    0.0000
     atom:   25    charge:    1.7131    magn:    0.0081    constr:    0.0000
     atom:   26    charge:    1.7102    magn:    0.0118    constr:    0.0000
     atom:   27    charge:    1.8208    magn:    0.0915    constr:    0.0000
     atom:   28    charge:    7.0299    magn:    0.1546    constr:    0.0000
     atom:   29    charge:    1.8167    magn:    0.0698    constr:    0.0000
     atom:   30    charge:    1.7112    magn:    0.0156    constr:    0.0000
     atom:   31    charge:    1.7131    magn:    0.0069    constr:    0.0000
     atom:   32    charge:    1.7153    magn:    0.0019    constr:    0.0000
     atom:   33    charge:    1.7170    magn:   -0.0001    constr:    0.0000
     atom:   34    charge:    1.7152    magn:    0.0001    constr:    0.0000
     atom:   35    charge:    1.7169    magn:    0.0000    constr:    0.0000
     atom:   36    charge:    1.7147    magn:   -0.0001    constr:    0.0000
     atom:   37    charge:    1.7211    magn:    0.0035    constr:    0.0000
     atom:   38    charge:    1.7112    magn:    0.0112    constr:    0.0000
     atom:   39    charge:    1.8185    magn:    0.0764    constr:    0.0000
     atom:   40    charge:    1.7113    magn:    0.0157    constr:    0.0000
     atom:   41    charge:    1.7213    magn:    0.0023    constr:    0.0000
     atom:   42    charge:    1.7146    magn:    0.0000    constr:    0.0000
     atom:   43    charge:    1.7170    magn:   -0.0001    constr:    0.0000
     atom:   44    charge:    1.7153    magn:    0.0001    constr:    0.0000
     atom:   45    charge:    1.7212    magn:   -0.0008    constr:    0.0000
     atom:   46    charge:    1.7153    magn:    0.0000    constr:    0.0000
     atom:   47    charge:    1.7169    magn:    0.0000    constr:    0.0000
     atom:   48    charge:    1.7153    magn:    0.0014    constr:    0.0000
     atom:   49    charge:    1.7127    magn:    0.0064    constr:    0.0000
     atom:   50    charge:    1.7169    magn:   -0.0009    constr:    0.0000
     atom:   51    charge:    1.7130    magn:    0.0076    constr:    0.0000
     atom:   52    charge:    1.7154    magn:    0.0021    constr:    0.0000

     total cpu time spent up to now is     3355.7 secs

     End of self-consistent calculation

 ------ SPIN UP ------------


          k = 0.0000 0.0000 0.0000 ( 87777 PWs)   bands (ev):

   -19.8409 -19.0040 -18.9921 -18.9058 -18.9026 -18.8423 -18.7639 -17.1684
   -17.1668 -17.1321 -17.0916 -17.0842 -16.8095 -16.3292 -16.3251 -16.1851
   -16.1805 -16.1608 -15.7687 -14.4237 -14.4180 -14.1286 -14.0360 -14.0333
   -13.5765 -13.1664 -13.1661 -13.0801 -12.9395 -12.9342 -12.6312 -12.3113
   -12.3100 -11.7142 -11.6091 -11.6076 -11.1836 -10.9334 -10.9289  -9.5215
    -9.3647  -9.3632  -9.2432  -9.2337  -9.2335  -9.2241  -9.1423  -9.0904
    -9.0598  -9.0575  -8.9598  -8.7181  -8.7142  -8.0380  -7.8955  -7.8479
    -7.6639  -7.6599  -7.5385  -7.5334  -7.3737  -6.8825  -6.8439  -6.8406
    -6.8151  -6.7821  -6.7222  -6.7099  -6.6206  -6.6158  -6.5748  -6.5697
    -6.5661  -6.5220  -6.3980  -6.3931  -6.2711  -5.6129  -5.6117  -5.0282
    -4.9569  -4.8862  -4.8840  -4.8645  -4.7633  -4.7269  -4.7246  -4.5404
    -4.5366  -4.4088  -3.8555  -3.8510  -3.8187  -3.8165  -3.7835  -3.6380
    -3.6356  -3.3410  -1.8849  -1.8287  -1.8263  -1.7351  -1.7325  -1.2001
    -0.8289  -0.8261   0.9087   0.9429   0.9474   1.0911   1.0942   1.4995
     2.4894   2.7849   2.7928   2.8377   2.9207   2.9274   3.3277   3.4984
     3.6180   3.7263   3.7321   3.7517   3.9257   4.2334

     occupation numbers 
     1.0000   1.0000   1.0000   1.0000   1.0000   1.0000   1.0000   1.0000
     1.0000   1.0000   1.0000   1.0000   1.0000   1.0000   1.0000   1.0000
     1.0000   1.0000   1.0000   1.0000   1.0000   1.0000   1.0000   1.0000
     1.0000   1.0000   1.0000   1.0000   1.0000   1.0000   1.0000   1.0000
     1.0000   1.0000   1.0000   1.0000   1.0000   1.0000   1.0000   1.0000
     1.0000   1.0000   1.0000   1.0000   1.0000   1.0000   1.0000   1.0000
     1.0000   1.0000   1.0000   1.0000   1.0000   1.0000   1.0000   1.0000
     1.0000   1.0000   1.0000   1.0000   1.0000   1.0000   1.0000   1.0000
     1.0000   1.0000   1.0000   1.0000   1.0000   1.0000   1.0000   1.0000
     1.0000   1.0000   1.0000   1.0000   1.0000   1.0000   1.0000   1.0000
     1.0000   1.0000   1.0000   1.0000   1.0000   1.0000   1.0000   1.0000
     1.0000   1.0000   1.0000   1.0000   1.0000   1.0000   1.0000   1.0000
     1.0000   1.0000   1.0000   1.0000   1.0000   1.0000   1.0000   1.0000
     0.5771   0.4229   0.0000   0.0000   0.0000   0.0000   0.0000   0.0000
     0.0000   0.0000   0.0000   0.0000   0.0000   0.0000   0.0000   0.0000
     0.0000   0.0000   0.0000   0.0000   0.0000   0.0000

 ------ SPIN DOWN ----------


          k = 0.0000 0.0000 0.0000 ( 87777 PWs)   bands (ev):

   -19.8160 -18.9732 -18.9585 -18.8989 -18.8956 -18.8393 -18.6888 -17.1296
   -17.1286 -17.1159 -17.0716 -17.0596 -16.7762 -16.2928 -16.2872 -16.1656
   -16.1567 -16.1538 -15.6935 -14.3321 -14.3309 -14.1045 -14.0279 -14.0250
   -13.5344 -13.1410 -13.1409 -13.0671 -12.9055 -12.8951 -12.5671 -12.2038
   -12.1971 -11.6946 -11.5769 -11.5707 -11.0795 -10.8027 -10.7977  -9.4809
    -9.3459  -9.3431  -9.2355  -9.2250  -9.2247  -9.2119  -9.0059  -9.0021
    -8.9805  -8.9106  -8.8338  -8.6789  -8.6697  -8.0202  -7.8712  -7.8259
    -7.6143  -7.6115  -7.5222  -7.5147  -7.3505  -6.8470  -6.8400  -6.8326
    -6.7825  -6.7744  -6.7083  -6.6962  -6.5987  -6.5941  -6.5672  -6.5657
    -6.5619  -6.5159  -6.3566  -6.3521  -6.2448  -5.5868  -5.5828  -5.0091
    -4.9470  -4.8654  -4.8640  -4.7593  -4.7327  -4.7254  -4.6670  -4.5302
    -4.5241  -4.3849  -3.8514  -3.8468  -3.7927  -3.7919  -3.7844  -3.6198
    -3.6169  -3.3004  -1.8811  -1.8265  -1.8242  -1.7129  -1.7108  -1.1616
    -0.4631  -0.3915   0.9117   0.9464   0.9507   1.1125   1.1190   1.5123
     2.4896   2.7871   2.7949   2.8384   2.9451   2.9566   3.3345   3.5056
     3.6196   3.7256   3.7313   3.7505   3.9322   4.2329

     occupation numbers 
     1.0000   1.0000   1.0000   1.0000   1.0000   1.0000   1.0000   1.0000
     1.0000   1.0000   1.0000   1.0000   1.0000   1.0000   1.0000   1.0000
     1.0000   1.0000   1.0000   1.0000   1.0000   1.0000   1.0000   1.0000
     1.0000   1.0000   1.0000   1.0000   1.0000   1.0000   1.0000   1.0000
     1.0000   1.0000   1.0000   1.0000   1.0000   1.0000   1.0000   1.0000
     1.0000   1.0000   1.0000   1.0000   1.0000   1.0000   1.0000   1.0000
     1.0000   1.0000   1.0000   1.0000   1.0000   1.0000   1.0000   1.0000
     1.0000   1.0000   1.0000   1.0000   1.0000   1.0000   1.0000   1.0000
     1.0000   1.0000   1.0000   1.0000   1.0000   1.0000   1.0000   1.0000
     1.0000   1.0000   1.0000   1.0000   1.0000   1.0000   1.0000   1.0000
     1.0000   1.0000   1.0000   1.0000   1.0000   1.0000   1.0000   1.0000
     1.0000   1.0000   1.0000   1.0000   1.0000   1.0000   1.0000   1.0000
     1.0000   1.0000   1.0000   1.0000   1.0000   1.0000   1.0000   1.0000
     0.0000   0.0000   0.0000   0.0000   0.0000   0.0000   0.0000   0.0000
     0.0000   0.0000   0.0000   0.0000   0.0000   0.0000   0.0000   0.0000
     0.0000   0.0000   0.0000   0.0000   0.0000   0.0000

     the Fermi energy is    -0.8256 ev

!    total energy              =    -734.74356924 Ry
     Harris-Foulkes estimate   =    -734.74356976 Ry
     estimated scf accuracy    <       0.00000084 Ry

     The total energy is the sum of the following terms:

     one-electron contribution =   -2505.12919708 Ry
     hartree contribution      =    1308.32539026 Ry
     xc contribution           =    -275.96941995 Ry
     ewald contribution        =     738.02997762 Ry
     smearing contrib. (-TS)   =      -0.00032010 Ry

     total magnetization       =     1.00 Bohr mag/cell
     absolute magnetization    =     1.07 Bohr mag/cell

     convergence has been achieved in  32 iterations

     Writing output data file cobre-baricentro-distance-2.4.save/

     init_run     :     75.89s CPU     77.19s WALL (       1 calls)
     electrons    :   3220.20s CPU   3277.53s WALL (       1 calls)

     Called by init_run:
     wfcinit      :     43.37s CPU     43.62s WALL (       1 calls)
     wfcinit:atom :      0.07s CPU      0.09s WALL (       2 calls)
     wfcinit:wfcr :     42.97s CPU     43.15s WALL (       2 calls)
     potinit      :     13.30s CPU     13.72s WALL (       1 calls)
     hinit0       :     10.52s CPU     10.56s WALL (       1 calls)

     Called by electrons:
     c_bands      :   1980.84s CPU   1990.66s WALL (      32 calls)
     sum_band     :    723.88s CPU    743.03s WALL (      32 calls)
     v_of_rho     :    248.70s CPU    259.65s WALL (      33 calls)
     v_h          :      2.73s CPU      2.79s WALL (      33 calls)
     v_xc         :    245.98s CPU    256.86s WALL (      33 calls)
     newd         :    258.08s CPU    275.94s WALL (      33 calls)
     mix_rho      :     15.35s CPU     15.63s WALL (      32 calls)

     Called by c_bands:
     init_us_2    :      6.31s CPU      6.36s WALL (     130 calls)
     cegterg      :   1965.01s CPU   1974.76s WALL (      64 calls)

     Called by sum_band:
     sum_band:bec :      0.06s CPU      0.06s WALL (      64 calls)
     addusdens    :    452.67s CPU    470.26s WALL (      32 calls)

     Called by *egterg:
     h_psi        :   1064.74s CPU   1071.45s WALL (     216 calls)
     s_psi        :    353.77s CPU    353.85s WALL (     216 calls)
     g_psi        :      1.02s CPU      1.02s WALL (     150 calls)
     cdiaghg      :     12.80s CPU     12.81s WALL (     214 calls)
     cegterg:over :    226.19s CPU    226.25s WALL (     150 calls)
     cegterg:upda :    126.22s CPU    127.02s WALL (     150 calls)
     cegterg:last :    105.28s CPU    105.30s WALL (      64 calls)

     Called by h_psi:
     h_psi:pot    :   1063.54s CPU   1069.02s WALL (     216 calls)
     h_psi:calbec :    353.17s CPU    353.27s WALL (     216 calls)
     vloc_psi     :    355.44s CPU    360.76s WALL (     216 calls)
     add_vuspsi   :    354.93s CPU    354.98s WALL (     216 calls)

     General routines
     calbec       :    516.47s CPU    516.61s WALL (     280 calls)
     fft          :    148.60s CPU    153.13s WALL (    2469 calls)
     ffts         :      2.57s CPU      2.66s WALL (     130 calls)
     fftw         :    382.08s CPU    388.11s WALL (   43200 calls)
     interpolate  :      6.09s CPU      6.25s WALL (      66 calls)

     Parallel routines
     fft_scatt_xy :     98.26s CPU     99.23s WALL (   45799 calls)
     fft_scatt_yz :    178.47s CPU    186.67s WALL (   45799 calls)

     PWSCF        :  54m57.49s CPU  55m56.53s WALL


   This run was terminated on:  13:27:21   8Sep2022            

=------------------------------------------------------------------------------=
   JOB DONE.
=------------------------------------------------------------------------------=
