
     Program PWSCF v.6.4.1 starts on  8Sep2022 at 11:45:15 

     This program is part of the open-source Quantum ESPRESSO suite
     for quantum simulation of materials; please cite
         "P. Giannozzi et al., J. Phys.:Condens. Matter 21 395502 (2009);
         "P. Giannozzi et al., J. Phys.:Condens. Matter 29 465901 (2017);
          URL http://www.quantum-espresso.org", 
     in publications or presentations arising from this work. More details at
     http://www.quantum-espresso.org/quote

     Parallel version (MPI), running on     6 processors

     MPI processes distributed on     1 nodes
     R & G space division:  proc/nbgrp/npool/nimage =       6
     Reading input from distance-2.6.in

     Current dimensions of program PWSCF are:
     Max number of different atomic species (ntypx) = 10
     Max number of k-points (npk) =  40000
     Max angular momentum in pseudopotentials (lmaxx) =  3

     IMPORTANT: XC functional enforced from input :
     Exchange-correlation      = RVV10 ( 1  4 13  4 3 0)
     Any further DFT definition will be discarded
     Please, verify this is what you really want

               file H.pbe-rrkjus.UPF: wavefunction(s)  1S renormalized
               file Cu.pbe-dn-rrkjus_psl.1.0.0.UPF: wavefunction(s)  3D renormalized

     Subspace diagonalization in iterative solution of the eigenvalue problem:
     a serial algorithm will be used


     Parallelization info
     --------------------
     sticks:   dense  smooth     PW     G-vecs:    dense   smooth      PW
     Min        3051    1746    432               270999   117096   14629
     Max        3053    1747    437               271001   117099   14630
     Sum       18313   10477   2611              1626001   702581   87777



     bravais-lattice index     =            4
     lattice parameter (alat)  =      23.2937  a.u.
     unit-cell volume          =    8879.8548 (a.u.)^3
     number of atoms/cell      =           52
     number of atomic types    =            3
     number of electrons       =       209.00
     number of Kohn-Sham states=          126
     kinetic-energy cutoff     =      70.0000  Ry
     charge density cutoff     =     490.0000  Ry
     convergence threshold     =      1.0E-06
     mixing beta               =       0.7000
     number of iterations used =            8  plain     mixing
     Exchange-correlation      = RVV10 ( 1  4 13  4 3 0)

     celldm(1)=  23.293684  celldm(2)=   0.000000  celldm(3)=   0.811261
     celldm(4)=   0.000000  celldm(5)=   0.000000  celldm(6)=   0.000000

     crystal axes: (cart. coord. in units of alat)
               a(1) = (   1.000000   0.000000   0.000000 )  
               a(2) = (  -0.500000   0.866025   0.000000 )  
               a(3) = (   0.000000   0.000000   0.811261 )  

     reciprocal axes: (cart. coord. in units 2 pi/alat)
               b(1) = (  1.000000  0.577350 -0.000000 )  
               b(2) = (  0.000000  1.154701  0.000000 )  
               b(3) = (  0.000000 -0.000000  1.232649 )  


     PseudoPot. # 1 for H  read from file:
     /home/cristian/Escritorio/Proyecto_Grafeno/pseudopotenciales/H.pbe-rrkjus.UPF
     MD5 check sum: 7cc9d459525c9a0585f487a71c3c9563
     Pseudo is Ultrasoft, Zval =  1.0
     Generated by new atomic code, or converted to UPF format
     Using radial grid of 1061 points,  2 beta functions with: 
                l(1) =   0
                l(2) =   0
     Q(r) pseudized with 0 coefficients 


     PseudoPot. # 2 for C  read from file:
     /home/cristian/Escritorio/Proyecto_Grafeno/pseudopotenciales/C.pbe-n-rrkjus_psl.1.0.0.UPF
     MD5 check sum: 1fdd950c42eb37d8afe3dd2f8d12311e
     Pseudo is Ultrasoft + core correction, Zval =  4.0
     Generated using "atomic" code by A. Dal Corso v.6.3MaX
     Using radial grid of 1073 points,  4 beta functions with: 
                l(1) =   0
                l(2) =   0
                l(3) =   1
                l(4) =   1
     Q(r) pseudized with 0 coefficients 


     PseudoPot. # 3 for Cu read from file:
     /home/cristian/Escritorio/Proyecto_Grafeno/pseudopotenciales/Cu.pbe-dn-rrkjus_psl.1.0.0.UPF
     MD5 check sum: ba3d6c84e19846e79d48cdc68ff7152b
     Pseudo is Ultrasoft + core correction, Zval = 11.0
     Generated using "atomic" code by A. Dal Corso v.6.3
     Using radial grid of 1199 points,  6 beta functions with: 
                l(1) =   0
                l(2) =   0
                l(3) =   1
                l(4) =   1
                l(5) =   2
                l(6) =   2
     Q(r) pseudized with 0 coefficients 


     vdW kernel table read from file rVV10_kernel_table
     MD5 check sum: b8e2538accc0c0b3206b45ba4daaba6c

     atomic species   valence    mass     pseudopotential
        H              1.00     1.00794     H ( 1.00)
        C              4.00    12.01070     C ( 1.00)
        Cu            11.00    63.54600     Cu( 1.00)

     Starting magnetic structure 
     atomic species   magnetization
        H            0.500
        C            0.300
        Cu           0.800

     No symmetry found


                                    s                        frac. trans.

      isym =  1     identity                                     

 cryst.   s( 1) = (     1          0          0      )
                  (     0          1          0      )
                  (     0          0          1      )

 cart.    s( 1) = (  1.0000000  0.0000000  0.0000000 )
                  (  0.0000000  1.0000000  0.0000000 )
                  (  0.0000000  0.0000000  1.0000000 )


     point group C_1 (1)    
     there are  1 classes
     the character table:

       E    
A      1.00

     the symmetry operations in each class and the name of the first element:

     E        1
          identity                                               

   Cartesian axes

     site n.     atom                  positions (alat units)
         1           H   tau(   1) = (   0.2361603   0.4618802   0.2109279  )
         2           H   tau(   2) = (   0.2971730   0.4618802   0.2109279  )
         3           C   tau(   3) = (   0.0000000   0.0000000   0.0000000  )
         4           C   tau(   4) = (   0.0000000   0.1154701   0.0000000  )
         5           C   tau(   5) = (  -0.1000000   0.1732051   0.0000000  )
         6           C   tau(   6) = (  -0.1000000   0.2886751   0.0000000  )
         7           C   tau(   7) = (  -0.2000000   0.3464102   0.0000000  )
         8           C   tau(   8) = (  -0.2000000   0.4618802   0.0000000  )
         9           C   tau(   9) = (  -0.3000000   0.5196152   0.0000000  )
        10           C   tau(  10) = (  -0.3000000   0.6350853   0.0000000  )
        11           C   tau(  11) = (  -0.4000000   0.6928203   0.0000000  )
        12           C   tau(  12) = (  -0.4000000   0.8082904   0.0000000  )
        13           C   tau(  13) = (   0.2000000   0.0000000   0.0000000  )
        14           C   tau(  14) = (   0.2000000   0.1154701   0.0000000  )
        15           C   tau(  15) = (   0.1000000   0.1732051   0.0000000  )
        16           C   tau(  16) = (   0.1000000   0.2886751   0.0000000  )
        17           C   tau(  17) = (   0.0000000   0.3464102   0.0000000  )
        18           C   tau(  18) = (   0.0000000   0.4618802   0.0000000  )
        19           C   tau(  19) = (  -0.1000000   0.5196152   0.0000000  )
        20           C   tau(  20) = (  -0.1000000   0.6350853   0.0000000  )
        21           C   tau(  21) = (  -0.2000000   0.6928203   0.0000000  )
        22           C   tau(  22) = (  -0.2000000   0.8082904   0.0000000  )
        23           C   tau(  23) = (   0.4000000   0.0000000   0.0000000  )
        24           C   tau(  24) = (   0.4000000   0.1154701   0.0000000  )
        25           C   tau(  25) = (   0.3000000   0.1732051   0.0000000  )
        26           C   tau(  26) = (   0.3000000   0.2886751   0.0000000  )
        27           C   tau(  27) = (   0.2000000   0.3464102   0.0000000  )
        28           Cu  tau(  28) = (   0.2000000   0.4618802   0.0000000  )
        29           C   tau(  29) = (   0.1000000   0.5196152   0.0000000  )
        30           C   tau(  30) = (   0.1000000   0.6350853   0.0000000  )
        31           C   tau(  31) = (   0.0000000   0.6928203   0.0000000  )
        32           C   tau(  32) = (   0.0000000   0.8082904   0.0000000  )
        33           C   tau(  33) = (   0.6000000   0.0000000   0.0000000  )
        34           C   tau(  34) = (   0.6000000   0.1154701   0.0000000  )
        35           C   tau(  35) = (   0.5000000   0.1732051   0.0000000  )
        36           C   tau(  36) = (   0.5000000   0.2886751   0.0000000  )
        37           C   tau(  37) = (   0.4000000   0.3464102   0.0000000  )
        38           C   tau(  38) = (   0.4000000   0.4618802   0.0000000  )
        39           C   tau(  39) = (   0.3000000   0.5196152   0.0000000  )
        40           C   tau(  40) = (   0.3000000   0.6350853   0.0000000  )
        41           C   tau(  41) = (   0.2000000   0.6928203   0.0000000  )
        42           C   tau(  42) = (   0.2000000   0.8082904   0.0000000  )
        43           C   tau(  43) = (   0.8000000   0.0000000   0.0000000  )
        44           C   tau(  44) = (   0.8000000   0.1154701   0.0000000  )
        45           C   tau(  45) = (   0.7000000   0.1732051   0.0000000  )
        46           C   tau(  46) = (   0.7000000   0.2886751   0.0000000  )
        47           C   tau(  47) = (   0.6000000   0.3464102   0.0000000  )
        48           C   tau(  48) = (   0.6000000   0.4618802   0.0000000  )
        49           C   tau(  49) = (   0.5000000   0.5196152   0.0000000  )
        50           C   tau(  50) = (   0.5000000   0.6350853   0.0000000  )
        51           C   tau(  51) = (   0.4000000   0.6928203   0.0000000  )
        52           C   tau(  52) = (   0.4000000   0.8082904   0.0000000  )

   Crystallographic axes

     site n.     atom                  positions (cryst. coord.)
         1           H   tau(   1) = (  0.5028270  0.5333333  0.2600000  )
         2           H   tau(   2) = (  0.5638397  0.5333333  0.2600000  )
         3           C   tau(   3) = (  0.0000000  0.0000000  0.0000000  )
         4           C   tau(   4) = (  0.0666667  0.1333333  0.0000000  )
         5           C   tau(   5) = (  0.0000000  0.2000000  0.0000000  )
         6           C   tau(   6) = (  0.0666667  0.3333333  0.0000000  )
         7           C   tau(   7) = (  0.0000000  0.4000000  0.0000000  )
         8           C   tau(   8) = (  0.0666667  0.5333333  0.0000000  )
         9           C   tau(   9) = (  0.0000000  0.6000000  0.0000000  )
        10           C   tau(  10) = (  0.0666667  0.7333333  0.0000000  )
        11           C   tau(  11) = (  0.0000000  0.8000000  0.0000000  )
        12           C   tau(  12) = (  0.0666667  0.9333333  0.0000000  )
        13           C   tau(  13) = (  0.2000000  0.0000000  0.0000000  )
        14           C   tau(  14) = (  0.2666667  0.1333333  0.0000000  )
        15           C   tau(  15) = (  0.2000000  0.2000000  0.0000000  )
        16           C   tau(  16) = (  0.2666667  0.3333333  0.0000000  )
        17           C   tau(  17) = (  0.2000000  0.4000000  0.0000000  )
        18           C   tau(  18) = (  0.2666667  0.5333333  0.0000000  )
        19           C   tau(  19) = (  0.2000000  0.6000000  0.0000000  )
        20           C   tau(  20) = (  0.2666667  0.7333333  0.0000000  )
        21           C   tau(  21) = (  0.2000000  0.8000000  0.0000000  )
        22           C   tau(  22) = (  0.2666667  0.9333333  0.0000000  )
        23           C   tau(  23) = (  0.4000000  0.0000000  0.0000000  )
        24           C   tau(  24) = (  0.4666667  0.1333333  0.0000000  )
        25           C   tau(  25) = (  0.4000000  0.2000000  0.0000000  )
        26           C   tau(  26) = (  0.4666667  0.3333333  0.0000000  )
        27           C   tau(  27) = (  0.4000000  0.4000000  0.0000000  )
        28           Cu  tau(  28) = (  0.4666667  0.5333333  0.0000000  )
        29           C   tau(  29) = (  0.4000000  0.6000000  0.0000000  )
        30           C   tau(  30) = (  0.4666667  0.7333333  0.0000000  )
        31           C   tau(  31) = (  0.4000000  0.8000000  0.0000000  )
        32           C   tau(  32) = (  0.4666667  0.9333333  0.0000000  )
        33           C   tau(  33) = (  0.6000000  0.0000000  0.0000000  )
        34           C   tau(  34) = (  0.6666667  0.1333333  0.0000000  )
        35           C   tau(  35) = (  0.6000000  0.2000000  0.0000000  )
        36           C   tau(  36) = (  0.6666667  0.3333333  0.0000000  )
        37           C   tau(  37) = (  0.6000000  0.4000000  0.0000000  )
        38           C   tau(  38) = (  0.6666667  0.5333333  0.0000000  )
        39           C   tau(  39) = (  0.6000000  0.6000000  0.0000000  )
        40           C   tau(  40) = (  0.6666667  0.7333333  0.0000000  )
        41           C   tau(  41) = (  0.6000000  0.8000000  0.0000000  )
        42           C   tau(  42) = (  0.6666667  0.9333333  0.0000000  )
        43           C   tau(  43) = (  0.8000000  0.0000000  0.0000000  )
        44           C   tau(  44) = (  0.8666667  0.1333333  0.0000000  )
        45           C   tau(  45) = (  0.8000000  0.2000000  0.0000000  )
        46           C   tau(  46) = (  0.8666667  0.3333333  0.0000000  )
        47           C   tau(  47) = (  0.8000000  0.4000000  0.0000000  )
        48           C   tau(  48) = (  0.8666667  0.5333333  0.0000000  )
        49           C   tau(  49) = (  0.8000000  0.6000000  0.0000000  )
        50           C   tau(  50) = (  0.8666667  0.7333333  0.0000000  )
        51           C   tau(  51) = (  0.8000000  0.8000000  0.0000000  )
        52           C   tau(  52) = (  0.8666667  0.9333333  0.0000000  )

     number of k points=     1  Marzari-Vanderbilt smearing, width (Ry)=  0.0010
                       cart. coord. in units 2pi/alat
        k(    1) = (   0.0000000   0.0000000   0.0000000), wk =   1.0000000

                       cryst. coord.
        k(    1) = (   0.0000000   0.0000000   0.0000000), wk =   1.0000000

     Dense  grid:  1626001 G-vectors     FFT dimensions: ( 180, 180, 135)

     Smooth grid:   702581 G-vectors     FFT dimensions: ( 125, 125, 108)

     Dynamical RAM for                 wfc:      28.14 MB

     Dynamical RAM for     wfc (w. buffer):      84.42 MB

     Dynamical RAM for           str. fact:      12.41 MB

     Dynamical RAM for           local pot:       0.00 MB

     Dynamical RAM for          nlocal pot:      92.46 MB

     Dynamical RAM for                qrad:      19.73 MB

     Dynamical RAM for          rho,v,vnew:      58.92 MB

     Dynamical RAM for               rhoin:      19.64 MB

     Dynamical RAM for            rho*nmix:     132.32 MB

     Dynamical RAM for           G-vectors:      16.40 MB

     Dynamical RAM for          h,s,v(r/c):      11.63 MB

     Dynamical RAM for          <psi|beta>:       0.80 MB

     Dynamical RAM for                 psi:     112.56 MB

     Dynamical RAM for                hpsi:     112.56 MB

     Dynamical RAM for                spsi:     112.56 MB

     Dynamical RAM for      wfcinit/wfcrot:      93.45 MB

     Dynamical RAM for           addusdens:     975.89 MB

     Estimated static dynamical RAM per process >     486.96 MB

     Estimated max dynamical RAM per process >       1.43 GB

     Estimated total dynamical RAM >       8.57 GB
     Generating pointlists ...
     new r_m :   0.0252 (alat units)  0.5862 (a.u.) for type    1
     new r_m :   0.0476 (alat units)  1.1095 (a.u.) for type    2
     new r_m :   0.0476 (alat units)  1.1095 (a.u.) for type    3

     Check: negative core charge=   -0.000002

     Initial potential from superposition of free atoms

     starting charge  208.80532, renormalised to  209.00000

     negative rho (up, down):  6.605E-05 1.146E-02


---------------------------------------------------------------------------------
Carrying out rVV10 run using the following parameters:
Nqs =      20    Nr_points =    1024   r_max =   100.000
b_value =  6.30000    beta =  0.00901
     q_mesh =  0.00010000  0.00030000  0.00058939  0.00100810
               0.00161396  0.00249058  0.00375900  0.00559430
               0.00824984  0.01209221  0.01765183  0.02569619
               0.03733578  0.05417739  0.07854596  0.11380545
               0.16482331  0.23864234  0.34545298  0.50000000

Gradients computed in Reciprocal space

---------------------------------------------------------------------------------


     Starting wfcs are  207 randomized atomic wfcs

     total cpu time spent up to now is       77.5 secs

     Self-consistent Calculation

     iteration #  1     ecut=    70.00 Ry     beta= 0.70
     Davidson diagonalization with overlap
     ethr =  1.00E-02,  avg # of iterations =  6.5

     negative rho (up, down):  1.592E-04 1.158E-02

     total cpu time spent up to now is      211.4 secs

     total energy              =    -729.45782167 Ry
     Harris-Foulkes estimate   =    -734.82757862 Ry
     estimated scf accuracy    <      12.19822501 Ry

     total magnetization       =     5.17 Bohr mag/cell
     absolute magnetization    =     5.85 Bohr mag/cell

     iteration #  2     ecut=    70.00 Ry     beta= 0.70
     Davidson diagonalization with overlap
     ethr =  5.84E-03,  avg # of iterations =  3.0

     negative rho (up, down):  1.843E-04 1.022E-02

     total cpu time spent up to now is      333.9 secs

     total energy              =    -730.41641441 Ry
     Harris-Foulkes estimate   =    -740.88977714 Ry
     estimated scf accuracy    <      24.74616290 Ry

     total magnetization       =     3.00 Bohr mag/cell
     absolute magnetization    =     3.22 Bohr mag/cell

     iteration #  3     ecut=    70.00 Ry     beta= 0.70
     Davidson diagonalization with overlap
     ethr =  5.84E-03,  avg # of iterations =  4.0

     negative rho (up, down):  2.213E-04 7.799E-03

     total cpu time spent up to now is      440.4 secs

     total energy              =    -732.64560180 Ry
     Harris-Foulkes estimate   =    -735.65961546 Ry
     estimated scf accuracy    <       8.00331650 Ry

     total magnetization       =     1.00 Bohr mag/cell
     absolute magnetization    =     1.67 Bohr mag/cell

     iteration #  4     ecut=    70.00 Ry     beta= 0.70
     Davidson diagonalization with overlap
     ethr =  3.83E-03,  avg # of iterations =  3.5

     negative rho (up, down):  2.616E-04 7.799E-03

     total cpu time spent up to now is      548.1 secs

     total energy              =    -733.73748223 Ry
     Harris-Foulkes estimate   =    -735.30187772 Ry
     estimated scf accuracy    <       6.78193578 Ry

     total magnetization       =     3.00 Bohr mag/cell
     absolute magnetization    =     3.12 Bohr mag/cell

     iteration #  5     ecut=    70.00 Ry     beta= 0.70
     Davidson diagonalization with overlap
     ethr =  3.24E-03,  avg # of iterations =  2.5

     negative rho (up, down):  3.076E-04 1.109E-02

     total cpu time spent up to now is      644.0 secs

     total energy              =    -734.57497479 Ry
     Harris-Foulkes estimate   =    -734.89697922 Ry
     estimated scf accuracy    <       0.99778176 Ry

     total magnetization       =     1.00 Bohr mag/cell
     absolute magnetization    =     1.39 Bohr mag/cell

     iteration #  6     ecut=    70.00 Ry     beta= 0.70
     Davidson diagonalization with overlap
     ethr =  4.77E-04,  avg # of iterations =  8.0

     negative rho (up, down):  3.891E-04 1.436E-02

     total cpu time spent up to now is      758.1 secs

     total energy              =    -734.68740379 Ry
     Harris-Foulkes estimate   =    -734.81628534 Ry
     estimated scf accuracy    <       0.44259725 Ry

     total magnetization       =     1.00 Bohr mag/cell
     absolute magnetization    =     1.27 Bohr mag/cell

     iteration #  7     ecut=    70.00 Ry     beta= 0.70
     Davidson diagonalization with overlap
     ethr =  2.12E-04,  avg # of iterations =  4.5

     negative rho (up, down):  5.655E-04 5.707E-03

     total cpu time spent up to now is      859.5 secs

     total energy              =    -734.73607481 Ry
     Harris-Foulkes estimate   =    -734.77505806 Ry
     estimated scf accuracy    <       0.15190880 Ry

     total magnetization       =     1.00 Bohr mag/cell
     absolute magnetization    =     1.21 Bohr mag/cell

     iteration #  8     ecut=    70.00 Ry     beta= 0.70
     Davidson diagonalization with overlap
     ethr =  7.27E-05,  avg # of iterations =  3.0

     negative rho (up, down):  6.252E-04 3.070E-03

     total cpu time spent up to now is      958.8 secs

     total energy              =    -734.74808788 Ry
     Harris-Foulkes estimate   =    -734.75888323 Ry
     estimated scf accuracy    <       0.05922944 Ry

     total magnetization       =     1.00 Bohr mag/cell
     absolute magnetization    =     1.16 Bohr mag/cell

     iteration #  9     ecut=    70.00 Ry     beta= 0.70
     Davidson diagonalization with overlap
     ethr =  2.83E-05,  avg # of iterations =  2.0

     negative rho (up, down):  6.571E-04 2.991E-03

     total cpu time spent up to now is     1054.7 secs

     total energy              =    -734.75116598 Ry
     Harris-Foulkes estimate   =    -734.75339243 Ry
     estimated scf accuracy    <       0.01942775 Ry

     total magnetization       =     1.00 Bohr mag/cell
     absolute magnetization    =     1.14 Bohr mag/cell

     iteration # 10     ecut=    70.00 Ry     beta= 0.70
     Davidson diagonalization with overlap
     ethr =  9.30E-06,  avg # of iterations =  7.0

     negative rho (up, down):  6.766E-04 4.513E-03

     total cpu time spent up to now is     1156.0 secs

     total energy              =    -734.75146430 Ry
     Harris-Foulkes estimate   =    -734.75530438 Ry
     estimated scf accuracy    <       0.03169570 Ry

     total magnetization       =     1.00 Bohr mag/cell
     absolute magnetization    =     1.13 Bohr mag/cell

     iteration # 11     ecut=    70.00 Ry     beta= 0.70
     Davidson diagonalization with overlap
     ethr =  9.30E-06,  avg # of iterations =  1.5

     negative rho (up, down):  6.744E-04 3.142E-03

     total cpu time spent up to now is     1249.1 secs

     total energy              =    -734.75250424 Ry
     Harris-Foulkes estimate   =    -734.75301203 Ry
     estimated scf accuracy    <       0.00675581 Ry

     total magnetization       =     1.00 Bohr mag/cell
     absolute magnetization    =     1.11 Bohr mag/cell

     iteration # 12     ecut=    70.00 Ry     beta= 0.70
     Davidson diagonalization with overlap
     ethr =  3.23E-06,  avg # of iterations =  3.5

     negative rho (up, down):  6.742E-04 2.890E-03

     total cpu time spent up to now is     1345.1 secs

     total energy              =    -734.75273382 Ry
     Harris-Foulkes estimate   =    -734.75289625 Ry
     estimated scf accuracy    <       0.00108531 Ry

     total magnetization       =     1.00 Bohr mag/cell
     absolute magnetization    =     1.09 Bohr mag/cell

     iteration # 13     ecut=    70.00 Ry     beta= 0.70
     Davidson diagonalization with overlap
     ethr =  5.19E-07,  avg # of iterations =  2.5

     negative rho (up, down):  6.626E-04 2.126E-03

     total cpu time spent up to now is     1441.1 secs

     total energy              =    -734.75284320 Ry
     Harris-Foulkes estimate   =    -734.75286478 Ry
     estimated scf accuracy    <       0.00063834 Ry

     total magnetization       =     1.00 Bohr mag/cell
     absolute magnetization    =     1.09 Bohr mag/cell

     iteration # 14     ecut=    70.00 Ry     beta= 0.70
     Davidson diagonalization with overlap
     ethr =  3.05E-07,  avg # of iterations =  1.0

     negative rho (up, down):  6.548E-04 1.794E-03

     total cpu time spent up to now is     1534.9 secs

     total energy              =    -734.75285871 Ry
     Harris-Foulkes estimate   =    -734.75286500 Ry
     estimated scf accuracy    <       0.00025716 Ry

     total magnetization       =     1.00 Bohr mag/cell
     absolute magnetization    =     1.08 Bohr mag/cell

     iteration # 15     ecut=    70.00 Ry     beta= 0.70
     Davidson diagonalization with overlap
     ethr =  1.23E-07,  avg # of iterations =  1.0

     negative rho (up, down):  6.510E-04 1.719E-03

     total cpu time spent up to now is     1628.7 secs

     total energy              =    -734.75286365 Ry
     Harris-Foulkes estimate   =    -734.75286682 Ry
     estimated scf accuracy    <       0.00005871 Ry

     total magnetization       =     1.00 Bohr mag/cell
     absolute magnetization    =     1.08 Bohr mag/cell

     iteration # 16     ecut=    70.00 Ry     beta= 0.70
     Davidson diagonalization with overlap
     ethr =  2.81E-08,  avg # of iterations =  2.5

     negative rho (up, down):  6.496E-04 1.727E-03

     total cpu time spent up to now is     1724.0 secs

     total energy              =    -734.75286746 Ry
     Harris-Foulkes estimate   =    -734.75286835 Ry
     estimated scf accuracy    <       0.00002053 Ry

     total magnetization       =     1.00 Bohr mag/cell
     absolute magnetization    =     1.07 Bohr mag/cell

     iteration # 17     ecut=    70.00 Ry     beta= 0.70
     Davidson diagonalization with overlap
     ethr =  9.82E-09,  avg # of iterations =  2.0

     negative rho (up, down):  6.487E-04 1.718E-03

     total cpu time spent up to now is     1818.5 secs

     total energy              =    -734.75286789 Ry
     Harris-Foulkes estimate   =    -734.75286956 Ry
     estimated scf accuracy    <       0.00001040 Ry

     total magnetization       =     1.00 Bohr mag/cell
     absolute magnetization    =     1.07 Bohr mag/cell

     iteration # 18     ecut=    70.00 Ry     beta= 0.70
     Davidson diagonalization with overlap
     ethr =  4.98E-09,  avg # of iterations =  2.0

     negative rho (up, down):  6.478E-04 1.723E-03

     total cpu time spent up to now is     1913.5 secs

     total energy              =    -734.75286994 Ry
     Harris-Foulkes estimate   =    -734.75287032 Ry
     estimated scf accuracy    <       0.00003669 Ry

     total magnetization       =     1.00 Bohr mag/cell
     absolute magnetization    =     1.07 Bohr mag/cell

     iteration # 19     ecut=    70.00 Ry     beta= 0.70
     Davidson diagonalization with overlap
     ethr =  4.98E-09,  avg # of iterations =  1.5

     negative rho (up, down):  6.478E-04 1.722E-03

     total cpu time spent up to now is     2009.1 secs

     total energy              =    -734.75287046 Ry
     Harris-Foulkes estimate   =    -734.75287053 Ry
     estimated scf accuracy    <       0.00003080 Ry

     total magnetization       =     1.00 Bohr mag/cell
     absolute magnetization    =     1.07 Bohr mag/cell

     iteration # 20     ecut=    70.00 Ry     beta= 0.70
     Davidson diagonalization with overlap
     ethr =  4.98E-09,  avg # of iterations =  1.0

     negative rho (up, down):  6.480E-04 1.721E-03

     total cpu time spent up to now is     2103.7 secs

     total energy              =    -734.75287039 Ry
     Harris-Foulkes estimate   =    -734.75287069 Ry
     estimated scf accuracy    <       0.00002380 Ry

     total magnetization       =     1.00 Bohr mag/cell
     absolute magnetization    =     1.07 Bohr mag/cell

     iteration # 21     ecut=    70.00 Ry     beta= 0.70
     Davidson diagonalization with overlap
     ethr =  4.98E-09,  avg # of iterations =  1.0

     negative rho (up, down):  6.480E-04 1.724E-03

     total cpu time spent up to now is     2196.7 secs

     total energy              =    -734.75287029 Ry
     Harris-Foulkes estimate   =    -734.75287087 Ry
     estimated scf accuracy    <       0.00002580 Ry

     total magnetization       =     1.00 Bohr mag/cell
     absolute magnetization    =     1.07 Bohr mag/cell

     iteration # 22     ecut=    70.00 Ry     beta= 0.70
     Davidson diagonalization with overlap
     ethr =  4.98E-09,  avg # of iterations =  1.0

     negative rho (up, down):  6.482E-04 1.715E-03

     total cpu time spent up to now is     2290.2 secs

     total energy              =    -734.75287030 Ry
     Harris-Foulkes estimate   =    -734.75287065 Ry
     estimated scf accuracy    <       0.00001689 Ry

     total magnetization       =     1.00 Bohr mag/cell
     absolute magnetization    =     1.07 Bohr mag/cell

     iteration # 23     ecut=    70.00 Ry     beta= 0.70
     Davidson diagonalization with overlap
     ethr =  4.98E-09,  avg # of iterations =  1.5

     negative rho (up, down):  6.487E-04 1.709E-03

     total cpu time spent up to now is     2384.0 secs

     total energy              =    -734.75287040 Ry
     Harris-Foulkes estimate   =    -734.75287071 Ry
     estimated scf accuracy    <       0.00000785 Ry

     total magnetization       =     1.00 Bohr mag/cell
     absolute magnetization    =     1.06 Bohr mag/cell

     iteration # 24     ecut=    70.00 Ry     beta= 0.70
     Davidson diagonalization with overlap
     ethr =  3.76E-09,  avg # of iterations =  1.0

     negative rho (up, down):  6.488E-04 1.707E-03

     total cpu time spent up to now is     2477.1 secs

     total energy              =    -734.75287054 Ry
     Harris-Foulkes estimate   =    -734.75287066 Ry
     estimated scf accuracy    <       0.00000275 Ry

     total magnetization       =     1.00 Bohr mag/cell
     absolute magnetization    =     1.06 Bohr mag/cell

     iteration # 25     ecut=    70.00 Ry     beta= 0.70
     Davidson diagonalization with overlap
     ethr =  1.31E-09,  avg # of iterations =  1.0

     negative rho (up, down):  6.489E-04 1.704E-03

     total cpu time spent up to now is     2570.3 secs

     total energy              =    -734.75287068 Ry
     Harris-Foulkes estimate   =    -734.75287067 Ry
     estimated scf accuracy    <       0.00000471 Ry

     total magnetization       =     1.00 Bohr mag/cell
     absolute magnetization    =     1.07 Bohr mag/cell

     iteration # 26     ecut=    70.00 Ry     beta= 0.70
     Davidson diagonalization with overlap
     ethr =  1.31E-09,  avg # of iterations =  1.0

     negative rho (up, down):  6.490E-04 1.703E-03

     total cpu time spent up to now is     2667.4 secs

     total energy              =    -734.75287029 Ry
     Harris-Foulkes estimate   =    -734.75287071 Ry
     estimated scf accuracy    <       0.00000489 Ry

     total magnetization       =     1.00 Bohr mag/cell
     absolute magnetization    =     1.07 Bohr mag/cell

     iteration # 27     ecut=    70.00 Ry     beta= 0.70
     Davidson diagonalization with overlap
     ethr =  1.31E-09,  avg # of iterations =  2.5

     negative rho (up, down):  6.488E-04 1.709E-03

     Magnetic moment per site:
     atom:    1    charge:    0.2124    magn:    0.0000    constr:    0.0000
     atom:    2    charge:    0.2121    magn:   -0.0001    constr:    0.0000
     atom:    3    charge:    1.7158    magn:    0.0016    constr:    0.0000
     atom:    4    charge:    1.7153    magn:    0.0018    constr:    0.0000
     atom:    5    charge:    1.7169    magn:    0.0000    constr:    0.0000
     atom:    6    charge:    1.7146    magn:   -0.0001    constr:    0.0000
     atom:    7    charge:    1.7170    magn:   -0.0000    constr:    0.0000
     atom:    8    charge:    1.7153    magn:    0.0016    constr:    0.0000
     atom:    9    charge:    1.7158    magn:    0.0015    constr:    0.0000
     atom:   10    charge:    1.7170    magn:   -0.0009    constr:    0.0000
     atom:   11    charge:    1.7160    magn:    0.0005    constr:    0.0000
     atom:   12    charge:    1.7171    magn:   -0.0009    constr:    0.0000
     atom:   13    charge:    1.7160    magn:    0.0006    constr:    0.0000
     atom:   14    charge:    1.7169    magn:   -0.0010    constr:    0.0000
     atom:   15    charge:    1.7131    magn:    0.0076    constr:    0.0000
     atom:   16    charge:    1.7106    magn:    0.0125    constr:    0.0000
     atom:   17    charge:    1.7215    magn:    0.0032    constr:    0.0000
     atom:   18    charge:    1.7106    magn:    0.0122    constr:    0.0000
     atom:   19    charge:    1.7129    magn:    0.0067    constr:    0.0000
     atom:   20    charge:    1.7169    magn:   -0.0009    constr:    0.0000
     atom:   21    charge:    1.7160    magn:    0.0005    constr:    0.0000
     atom:   22    charge:    1.7170    magn:   -0.0009    constr:    0.0000
     atom:   23    charge:    1.7158    magn:    0.0017    constr:    0.0000
     atom:   24    charge:    1.7153    magn:    0.0018    constr:    0.0000
     atom:   25    charge:    1.7131    magn:    0.0077    constr:    0.0000
     atom:   26    charge:    1.7105    magn:    0.0129    constr:    0.0000
     atom:   27    charge:    1.8191    magn:    0.0854    constr:    0.0000
     atom:   28    charge:    7.0292    magn:    0.1547    constr:    0.0000
     atom:   29    charge:    1.8174    magn:    0.0767    constr:    0.0000
     atom:   30    charge:    1.7109    magn:    0.0144    constr:    0.0000
     atom:   31    charge:    1.7131    magn:    0.0073    constr:    0.0000
     atom:   32    charge:    1.7153    magn:    0.0019    constr:    0.0000
     atom:   33    charge:    1.7170    magn:   -0.0000    constr:    0.0000
     atom:   34    charge:    1.7152    magn:    0.0000    constr:    0.0000
     atom:   35    charge:    1.7170    magn:    0.0000    constr:    0.0000
     atom:   36    charge:    1.7147    magn:   -0.0001    constr:    0.0000
     atom:   37    charge:    1.7212    magn:    0.0031    constr:    0.0000
     atom:   38    charge:    1.7111    magn:    0.0126    constr:    0.0000
     atom:   39    charge:    1.8178    magn:    0.0761    constr:    0.0000
     atom:   40    charge:    1.7110    magn:    0.0144    constr:    0.0000
     atom:   41    charge:    1.7213    magn:    0.0027    constr:    0.0000
     atom:   42    charge:    1.7146    magn:   -0.0000    constr:    0.0000
     atom:   43    charge:    1.7170    magn:   -0.0000    constr:    0.0000
     atom:   44    charge:    1.7152    magn:    0.0000    constr:    0.0000
     atom:   45    charge:    1.7211    magn:   -0.0007    constr:    0.0000
     atom:   46    charge:    1.7153    magn:    0.0000    constr:    0.0000
     atom:   47    charge:    1.7169    magn:    0.0000    constr:    0.0000
     atom:   48    charge:    1.7153    magn:    0.0016    constr:    0.0000
     atom:   49    charge:    1.7128    magn:    0.0067    constr:    0.0000
     atom:   50    charge:    1.7169    magn:   -0.0009    constr:    0.0000
     atom:   51    charge:    1.7130    magn:    0.0072    constr:    0.0000
     atom:   52    charge:    1.7153    magn:    0.0019    constr:    0.0000

     total cpu time spent up to now is     2768.3 secs

     End of self-consistent calculation

 ------ SPIN UP ------------


          k = 0.0000 0.0000 0.0000 ( 87777 PWs)   bands (ev):

   -19.8394 -18.9997 -18.9937 -18.9039 -18.9019 -18.8410 -18.7620 -17.1669
   -17.1661 -17.1309 -17.0882 -17.0845 -16.8079 -16.3271 -16.3250 -16.1825
   -16.1802 -16.1596 -15.7666 -14.4213 -14.4188 -14.1275 -14.0342 -14.0326
   -13.5750 -13.1651 -13.1649 -13.0788 -12.9366 -12.9341 -12.6297 -12.3111
   -12.3101 -11.7129 -11.6072 -11.6066 -11.1827 -10.9325 -10.9301  -9.5207
    -9.3631  -9.3623  -9.2420  -9.2324  -9.2323  -9.2228  -9.1153  -9.0915
    -9.0583  -9.0573  -8.9565  -8.7158  -8.7139  -7.9957  -7.8945  -7.8420
    -7.6618  -7.6597  -7.5343  -7.5325  -7.2222  -6.8805  -6.8419  -6.8402
    -6.8144  -6.7810  -6.7178  -6.7109  -6.6182  -6.6158  -6.5733  -6.5677
    -6.5658  -6.5208  -6.3963  -6.3938  -6.3368  -5.6117  -5.6111  -5.0270
    -4.9557  -4.9171  -4.8839  -4.8832  -4.7622  -4.7256  -4.7245  -4.5390
    -4.5370  -4.4368  -3.8529  -3.8503  -3.8171  -3.8159  -3.7823  -3.6371
    -3.6355  -3.3698  -1.8829  -1.8269  -1.8254  -1.7327  -1.7311  -1.2083
    -0.8281  -0.8267   0.9110   0.9458   0.9486   1.0942   1.0958   1.5002
     2.4908   2.7892   2.7944   2.8390   2.9260   2.9299   3.3336   3.4811
     3.6107   3.7258   3.7317   3.7516   3.9224   4.2476

     occupation numbers 
     1.0000   1.0000   1.0000   1.0000   1.0000   1.0000   1.0000   1.0000
     1.0000   1.0000   1.0000   1.0000   1.0000   1.0000   1.0000   1.0000
     1.0000   1.0000   1.0000   1.0000   1.0000   1.0000   1.0000   1.0000
     1.0000   1.0000   1.0000   1.0000   1.0000   1.0000   1.0000   1.0000
     1.0000   1.0000   1.0000   1.0000   1.0000   1.0000   1.0000   1.0000
     1.0000   1.0000   1.0000   1.0000   1.0000   1.0000   1.0000   1.0000
     1.0000   1.0000   1.0000   1.0000   1.0000   1.0000   1.0000   1.0000
     1.0000   1.0000   1.0000   1.0000   1.0000   1.0000   1.0000   1.0000
     1.0000   1.0000   1.0000   1.0000   1.0000   1.0000   1.0000   1.0000
     1.0000   1.0000   1.0000   1.0000   1.0000   1.0000   1.0000   1.0000
     1.0000   1.0000   1.0000   1.0000   1.0000   1.0000   1.0000   1.0000
     1.0000   1.0000   1.0000   1.0000   1.0000   1.0000   1.0000   1.0000
     1.0000   1.0000   1.0000   1.0000   1.0000   1.0000   1.0000   1.0000
     0.5373   0.4627   0.0000   0.0000   0.0000   0.0000   0.0000   0.0000
     0.0000   0.0000   0.0000   0.0000   0.0000   0.0000   0.0000   0.0000
     0.0000   0.0000   0.0000   0.0000   0.0000   0.0000

 ------ SPIN DOWN ----------


          k = 0.0000 0.0000 0.0000 ( 87777 PWs)   bands (ev):

   -19.8145 -18.9680 -18.9607 -18.8972 -18.8950 -18.8381 -18.6867 -17.1281
   -17.1272 -17.1150 -17.0671 -17.0614 -16.7746 -16.2903 -16.2875 -16.1618
   -16.1575 -16.1527 -15.6912 -14.3305 -14.3304 -14.1034 -14.0261 -14.0245
   -13.5327 -13.1398 -13.1396 -13.0659 -12.9012 -12.8963 -12.5654 -12.2018
   -12.1984 -11.6933 -11.5737 -11.5709 -11.0779 -10.8016 -10.7995  -9.4801
    -9.3439  -9.3426  -9.2343  -9.2237  -9.2235  -9.2107  -9.0021  -9.0013
    -8.9493  -8.9157  -8.8311  -8.6754  -8.6710  -7.9823  -7.8702  -7.8199
    -7.6126  -7.6111  -7.5174  -7.5144  -7.1974  -6.8446  -6.8392  -6.8322
    -6.7814  -6.7738  -6.7036  -6.6975  -6.5964  -6.5940  -6.5656  -6.5637
    -6.5617  -6.5146  -6.3553  -6.3530  -6.3139  -5.5847  -5.5830  -5.0080
    -4.9458  -4.8641  -4.8632  -4.7577  -4.7323  -4.7240  -4.7049  -4.5291
    -4.5263  -4.4189  -3.8489  -3.8462  -3.7913  -3.7910  -3.7831  -3.6185
    -3.6171  -3.3303  -1.8792  -1.8249  -1.8234  -1.7105  -1.7091  -1.1706
    -0.4434  -0.4094   0.9141   0.9491   0.9519   1.1165   1.1199   1.5127
     2.4910   2.7915   2.7964   2.8400   2.9518   2.9579   3.3396   3.4886
     3.6122   3.7251   3.7308   3.7504   3.9292   4.2472

     occupation numbers 
     1.0000   1.0000   1.0000   1.0000   1.0000   1.0000   1.0000   1.0000
     1.0000   1.0000   1.0000   1.0000   1.0000   1.0000   1.0000   1.0000
     1.0000   1.0000   1.0000   1.0000   1.0000   1.0000   1.0000   1.0000
     1.0000   1.0000   1.0000   1.0000   1.0000   1.0000   1.0000   1.0000
     1.0000   1.0000   1.0000   1.0000   1.0000   1.0000   1.0000   1.0000
     1.0000   1.0000   1.0000   1.0000   1.0000   1.0000   1.0000   1.0000
     1.0000   1.0000   1.0000   1.0000   1.0000   1.0000   1.0000   1.0000
     1.0000   1.0000   1.0000   1.0000   1.0000   1.0000   1.0000   1.0000
     1.0000   1.0000   1.0000   1.0000   1.0000   1.0000   1.0000   1.0000
     1.0000   1.0000   1.0000   1.0000   1.0000   1.0000   1.0000   1.0000
     1.0000   1.0000   1.0000   1.0000   1.0000   1.0000   1.0000   1.0000
     1.0000   1.0000   1.0000   1.0000   1.0000   1.0000   1.0000   1.0000
     1.0000   1.0000   1.0000   1.0000   1.0000   1.0000   1.0000   1.0000
     0.0000   0.0000   0.0000   0.0000   0.0000   0.0000   0.0000   0.0000
     0.0000   0.0000   0.0000   0.0000   0.0000   0.0000   0.0000   0.0000
     0.0000   0.0000   0.0000   0.0000   0.0000   0.0000

     the Fermi energy is    -0.8255 ev

!    total energy              =    -734.75287068 Ry
     Harris-Foulkes estimate   =    -734.75287069 Ry
     estimated scf accuracy    <       0.00000003 Ry

     The total energy is the sum of the following terms:

     one-electron contribution =   -2500.41593542 Ry
     hartree contribution      =    1305.96977072 Ry
     xc contribution           =    -275.95176143 Ry
     ewald contribution        =     735.64538175 Ry
     smearing contrib. (-TS)   =      -0.00032629 Ry

     total magnetization       =     1.00 Bohr mag/cell
     absolute magnetization    =     1.06 Bohr mag/cell

     convergence has been achieved in  27 iterations

     Writing output data file cobre-baricentro-distance-2.6.save/

     init_run     :     74.96s CPU     76.34s WALL (       1 calls)
     electrons    :   2643.95s CPU   2690.98s WALL (       1 calls)

     Called by init_run:
     wfcinit      :     43.74s CPU     44.03s WALL (       1 calls)
     wfcinit:atom :      0.05s CPU      0.09s WALL (       2 calls)
     wfcinit:wfcr :     43.33s CPU     43.51s WALL (       2 calls)
     potinit      :     12.49s CPU     12.98s WALL (       1 calls)
     hinit0       :      9.72s CPU      9.74s WALL (       1 calls)

     Called by electrons:
     c_bands      :   1639.12s CPU   1647.83s WALL (      27 calls)
     sum_band     :    582.33s CPU    598.26s WALL (      27 calls)
     v_of_rho     :    207.88s CPU    216.97s WALL (      28 calls)
     v_h          :      2.22s CPU      2.28s WALL (      28 calls)
     v_xc         :    205.66s CPU    214.69s WALL (      28 calls)
     newd         :    210.57s CPU    224.44s WALL (      28 calls)
     mix_rho      :     12.53s CPU     12.74s WALL (      27 calls)

     Called by c_bands:
     init_us_2    :      5.28s CPU      5.32s WALL (     110 calls)
     cegterg      :   1626.33s CPU   1634.99s WALL (      54 calls)

     Called by sum_band:
     sum_band:bec :      0.04s CPU      0.04s WALL (      54 calls)
     addusdens    :    361.81s CPU    376.48s WALL (      27 calls)

     Called by *egterg:
     h_psi        :    885.68s CPU    891.62s WALL (     199 calls)
     s_psi        :    298.91s CPU    299.01s WALL (     199 calls)
     g_psi        :      0.88s CPU      0.88s WALL (     143 calls)
     cdiaghg      :     12.28s CPU     12.29s WALL (     197 calls)
     cegterg:over :    184.44s CPU    184.51s WALL (     143 calls)
     cegterg:upda :    107.31s CPU    108.04s WALL (     143 calls)
     cegterg:last :     86.72s CPU     86.75s WALL (      54 calls)

     Called by h_psi:
     h_psi:pot    :    884.69s CPU    889.57s WALL (     199 calls)
     h_psi:calbec :    295.53s CPU    295.62s WALL (     199 calls)
     vloc_psi     :    290.26s CPU    294.96s WALL (     199 calls)
     add_vuspsi   :    298.89s CPU    298.98s WALL (     199 calls)

     General routines
     calbec       :    429.03s CPU    429.17s WALL (     253 calls)
     fft          :    121.90s CPU    125.67s WALL (    2094 calls)
     ffts         :      2.20s CPU      2.29s WALL (     110 calls)
     fftw         :    310.07s CPU    315.30s WALL (   36958 calls)
     interpolate  :      4.96s CPU      5.12s WALL (      56 calls)

     Parallel routines
     fft_scatt_xy :     78.58s CPU     79.54s WALL (   39162 calls)
     fft_scatt_yz :    147.09s CPU    153.84s WALL (   39162 calls)

     PWSCF        :  45m20.22s CPU  46m 8.99s WALL


   This run was terminated on:  12:31:24   8Sep2022            

=------------------------------------------------------------------------------=
   JOB DONE.
=------------------------------------------------------------------------------=
