
     Program PWSCF v.6.4.1 starts on  8Sep2022 at  7:49:31 

     This program is part of the open-source Quantum ESPRESSO suite
     for quantum simulation of materials; please cite
         "P. Giannozzi et al., J. Phys.:Condens. Matter 21 395502 (2009);
         "P. Giannozzi et al., J. Phys.:Condens. Matter 29 465901 (2017);
          URL http://www.quantum-espresso.org", 
     in publications or presentations arising from this work. More details at
     http://www.quantum-espresso.org/quote

     Parallel version (MPI), running on     6 processors

     MPI processes distributed on     1 nodes
     R & G space division:  proc/nbgrp/npool/nimage =       6
     Reading input from distance-4.5.in

     Current dimensions of program PWSCF are:
     Max number of different atomic species (ntypx) = 10
     Max number of k-points (npk) =  40000
     Max angular momentum in pseudopotentials (lmaxx) =  3

     IMPORTANT: XC functional enforced from input :
     Exchange-correlation      = RVV10 ( 1  4 13  4 3 0)
     Any further DFT definition will be discarded
     Please, verify this is what you really want

               file H.pbe-rrkjus.UPF: wavefunction(s)  1S renormalized
               file Cu.pbe-dn-rrkjus_psl.1.0.0.UPF: wavefunction(s)  3D renormalized

     Subspace diagonalization in iterative solution of the eigenvalue problem:
     a serial algorithm will be used


     Parallelization info
     --------------------
     sticks:   dense  smooth     PW     G-vecs:    dense   smooth      PW
     Min        3051    1746    432               270999   117096   14629
     Max        3053    1747    437               271001   117099   14630
     Sum       18313   10477   2611              1626001   702581   87777



     bravais-lattice index     =            4
     lattice parameter (alat)  =      23.2937  a.u.
     unit-cell volume          =    8879.8548 (a.u.)^3
     number of atoms/cell      =           52
     number of atomic types    =            3
     number of electrons       =       209.00
     number of Kohn-Sham states=          126
     kinetic-energy cutoff     =      70.0000  Ry
     charge density cutoff     =     490.0000  Ry
     convergence threshold     =      1.0E-06
     mixing beta               =       0.7000
     number of iterations used =            8  plain     mixing
     Exchange-correlation      = RVV10 ( 1  4 13  4 3 0)

     celldm(1)=  23.293684  celldm(2)=   0.000000  celldm(3)=   0.811261
     celldm(4)=   0.000000  celldm(5)=   0.000000  celldm(6)=   0.000000

     crystal axes: (cart. coord. in units of alat)
               a(1) = (   1.000000   0.000000   0.000000 )  
               a(2) = (  -0.500000   0.866025   0.000000 )  
               a(3) = (   0.000000   0.000000   0.811261 )  

     reciprocal axes: (cart. coord. in units 2 pi/alat)
               b(1) = (  1.000000  0.577350 -0.000000 )  
               b(2) = (  0.000000  1.154701  0.000000 )  
               b(3) = (  0.000000 -0.000000  1.232649 )  


     PseudoPot. # 1 for H  read from file:
     /home/cristian/Escritorio/Proyecto_Grafeno/pseudopotenciales/H.pbe-rrkjus.UPF
     MD5 check sum: 7cc9d459525c9a0585f487a71c3c9563
     Pseudo is Ultrasoft, Zval =  1.0
     Generated by new atomic code, or converted to UPF format
     Using radial grid of 1061 points,  2 beta functions with: 
                l(1) =   0
                l(2) =   0
     Q(r) pseudized with 0 coefficients 


     PseudoPot. # 2 for C  read from file:
     /home/cristian/Escritorio/Proyecto_Grafeno/pseudopotenciales/C.pbe-n-rrkjus_psl.1.0.0.UPF
     MD5 check sum: 1fdd950c42eb37d8afe3dd2f8d12311e
     Pseudo is Ultrasoft + core correction, Zval =  4.0
     Generated using "atomic" code by A. Dal Corso v.6.3MaX
     Using radial grid of 1073 points,  4 beta functions with: 
                l(1) =   0
                l(2) =   0
                l(3) =   1
                l(4) =   1
     Q(r) pseudized with 0 coefficients 


     PseudoPot. # 3 for Cu read from file:
     /home/cristian/Escritorio/Proyecto_Grafeno/pseudopotenciales/Cu.pbe-dn-rrkjus_psl.1.0.0.UPF
     MD5 check sum: ba3d6c84e19846e79d48cdc68ff7152b
     Pseudo is Ultrasoft + core correction, Zval = 11.0
     Generated using "atomic" code by A. Dal Corso v.6.3
     Using radial grid of 1199 points,  6 beta functions with: 
                l(1) =   0
                l(2) =   0
                l(3) =   1
                l(4) =   1
                l(5) =   2
                l(6) =   2
     Q(r) pseudized with 0 coefficients 


     vdW kernel table read from file rVV10_kernel_table
     MD5 check sum: b8e2538accc0c0b3206b45ba4daaba6c

     atomic species   valence    mass     pseudopotential
        H              1.00     1.00794     H ( 1.00)
        C              4.00    12.01070     C ( 1.00)
        Cu            11.00    63.54600     Cu( 1.00)

     Starting magnetic structure 
     atomic species   magnetization
        H            0.500
        C            0.300
        Cu           0.800

     No symmetry found


                                    s                        frac. trans.

      isym =  1     identity                                     

 cryst.   s( 1) = (     1          0          0      )
                  (     0          1          0      )
                  (     0          0          1      )

 cart.    s( 1) = (  1.0000000  0.0000000  0.0000000 )
                  (  0.0000000  1.0000000  0.0000000 )
                  (  0.0000000  0.0000000  1.0000000 )


     point group C_1 (1)    
     there are  1 classes
     the character table:

       E    
A      1.00

     the symmetry operations in each class and the name of the first element:

     E        1
          identity                                               

   Cartesian axes

     site n.     atom                  positions (alat units)
         1           H   tau(   1) = (   0.2361603   0.4618802   0.3650675  )
         2           H   tau(   2) = (   0.2971730   0.4618802   0.3650675  )
         3           C   tau(   3) = (   0.0000000   0.0000000   0.0000000  )
         4           C   tau(   4) = (   0.0000000   0.1154701   0.0000000  )
         5           C   tau(   5) = (  -0.1000000   0.1732051   0.0000000  )
         6           C   tau(   6) = (  -0.1000000   0.2886751   0.0000000  )
         7           C   tau(   7) = (  -0.2000000   0.3464102   0.0000000  )
         8           C   tau(   8) = (  -0.2000000   0.4618802   0.0000000  )
         9           C   tau(   9) = (  -0.3000000   0.5196152   0.0000000  )
        10           C   tau(  10) = (  -0.3000000   0.6350853   0.0000000  )
        11           C   tau(  11) = (  -0.4000000   0.6928203   0.0000000  )
        12           C   tau(  12) = (  -0.4000000   0.8082904   0.0000000  )
        13           C   tau(  13) = (   0.2000000   0.0000000   0.0000000  )
        14           C   tau(  14) = (   0.2000000   0.1154701   0.0000000  )
        15           C   tau(  15) = (   0.1000000   0.1732051   0.0000000  )
        16           C   tau(  16) = (   0.1000000   0.2886751   0.0000000  )
        17           C   tau(  17) = (   0.0000000   0.3464102   0.0000000  )
        18           C   tau(  18) = (   0.0000000   0.4618802   0.0000000  )
        19           C   tau(  19) = (  -0.1000000   0.5196152   0.0000000  )
        20           C   tau(  20) = (  -0.1000000   0.6350853   0.0000000  )
        21           C   tau(  21) = (  -0.2000000   0.6928203   0.0000000  )
        22           C   tau(  22) = (  -0.2000000   0.8082904   0.0000000  )
        23           C   tau(  23) = (   0.4000000   0.0000000   0.0000000  )
        24           C   tau(  24) = (   0.4000000   0.1154701   0.0000000  )
        25           C   tau(  25) = (   0.3000000   0.1732051   0.0000000  )
        26           C   tau(  26) = (   0.3000000   0.2886751   0.0000000  )
        27           C   tau(  27) = (   0.2000000   0.3464102   0.0000000  )
        28           Cu  tau(  28) = (   0.2000000   0.4618802   0.0000000  )
        29           C   tau(  29) = (   0.1000000   0.5196152   0.0000000  )
        30           C   tau(  30) = (   0.1000000   0.6350853   0.0000000  )
        31           C   tau(  31) = (   0.0000000   0.6928203   0.0000000  )
        32           C   tau(  32) = (   0.0000000   0.8082904   0.0000000  )
        33           C   tau(  33) = (   0.6000000   0.0000000   0.0000000  )
        34           C   tau(  34) = (   0.6000000   0.1154701   0.0000000  )
        35           C   tau(  35) = (   0.5000000   0.1732051   0.0000000  )
        36           C   tau(  36) = (   0.5000000   0.2886751   0.0000000  )
        37           C   tau(  37) = (   0.4000000   0.3464102   0.0000000  )
        38           C   tau(  38) = (   0.4000000   0.4618802   0.0000000  )
        39           C   tau(  39) = (   0.3000000   0.5196152   0.0000000  )
        40           C   tau(  40) = (   0.3000000   0.6350853   0.0000000  )
        41           C   tau(  41) = (   0.2000000   0.6928203   0.0000000  )
        42           C   tau(  42) = (   0.2000000   0.8082904   0.0000000  )
        43           C   tau(  43) = (   0.8000000   0.0000000   0.0000000  )
        44           C   tau(  44) = (   0.8000000   0.1154701   0.0000000  )
        45           C   tau(  45) = (   0.7000000   0.1732051   0.0000000  )
        46           C   tau(  46) = (   0.7000000   0.2886751   0.0000000  )
        47           C   tau(  47) = (   0.6000000   0.3464102   0.0000000  )
        48           C   tau(  48) = (   0.6000000   0.4618802   0.0000000  )
        49           C   tau(  49) = (   0.5000000   0.5196152   0.0000000  )
        50           C   tau(  50) = (   0.5000000   0.6350853   0.0000000  )
        51           C   tau(  51) = (   0.4000000   0.6928203   0.0000000  )
        52           C   tau(  52) = (   0.4000000   0.8082904   0.0000000  )

   Crystallographic axes

     site n.     atom                  positions (cryst. coord.)
         1           H   tau(   1) = (  0.5028270  0.5333333  0.4500000  )
         2           H   tau(   2) = (  0.5638397  0.5333333  0.4500000  )
         3           C   tau(   3) = (  0.0000000  0.0000000  0.0000000  )
         4           C   tau(   4) = (  0.0666667  0.1333333  0.0000000  )
         5           C   tau(   5) = (  0.0000000  0.2000000  0.0000000  )
         6           C   tau(   6) = (  0.0666667  0.3333333  0.0000000  )
         7           C   tau(   7) = (  0.0000000  0.4000000  0.0000000  )
         8           C   tau(   8) = (  0.0666667  0.5333333  0.0000000  )
         9           C   tau(   9) = (  0.0000000  0.6000000  0.0000000  )
        10           C   tau(  10) = (  0.0666667  0.7333333  0.0000000  )
        11           C   tau(  11) = (  0.0000000  0.8000000  0.0000000  )
        12           C   tau(  12) = (  0.0666667  0.9333333  0.0000000  )
        13           C   tau(  13) = (  0.2000000  0.0000000  0.0000000  )
        14           C   tau(  14) = (  0.2666667  0.1333333  0.0000000  )
        15           C   tau(  15) = (  0.2000000  0.2000000  0.0000000  )
        16           C   tau(  16) = (  0.2666667  0.3333333  0.0000000  )
        17           C   tau(  17) = (  0.2000000  0.4000000  0.0000000  )
        18           C   tau(  18) = (  0.2666667  0.5333333  0.0000000  )
        19           C   tau(  19) = (  0.2000000  0.6000000  0.0000000  )
        20           C   tau(  20) = (  0.2666667  0.7333333  0.0000000  )
        21           C   tau(  21) = (  0.2000000  0.8000000  0.0000000  )
        22           C   tau(  22) = (  0.2666667  0.9333333  0.0000000  )
        23           C   tau(  23) = (  0.4000000  0.0000000  0.0000000  )
        24           C   tau(  24) = (  0.4666667  0.1333333  0.0000000  )
        25           C   tau(  25) = (  0.4000000  0.2000000  0.0000000  )
        26           C   tau(  26) = (  0.4666667  0.3333333  0.0000000  )
        27           C   tau(  27) = (  0.4000000  0.4000000  0.0000000  )
        28           Cu  tau(  28) = (  0.4666667  0.5333333  0.0000000  )
        29           C   tau(  29) = (  0.4000000  0.6000000  0.0000000  )
        30           C   tau(  30) = (  0.4666667  0.7333333  0.0000000  )
        31           C   tau(  31) = (  0.4000000  0.8000000  0.0000000  )
        32           C   tau(  32) = (  0.4666667  0.9333333  0.0000000  )
        33           C   tau(  33) = (  0.6000000  0.0000000  0.0000000  )
        34           C   tau(  34) = (  0.6666667  0.1333333  0.0000000  )
        35           C   tau(  35) = (  0.6000000  0.2000000  0.0000000  )
        36           C   tau(  36) = (  0.6666667  0.3333333  0.0000000  )
        37           C   tau(  37) = (  0.6000000  0.4000000  0.0000000  )
        38           C   tau(  38) = (  0.6666667  0.5333333  0.0000000  )
        39           C   tau(  39) = (  0.6000000  0.6000000  0.0000000  )
        40           C   tau(  40) = (  0.6666667  0.7333333  0.0000000  )
        41           C   tau(  41) = (  0.6000000  0.8000000  0.0000000  )
        42           C   tau(  42) = (  0.6666667  0.9333333  0.0000000  )
        43           C   tau(  43) = (  0.8000000  0.0000000  0.0000000  )
        44           C   tau(  44) = (  0.8666667  0.1333333  0.0000000  )
        45           C   tau(  45) = (  0.8000000  0.2000000  0.0000000  )
        46           C   tau(  46) = (  0.8666667  0.3333333  0.0000000  )
        47           C   tau(  47) = (  0.8000000  0.4000000  0.0000000  )
        48           C   tau(  48) = (  0.8666667  0.5333333  0.0000000  )
        49           C   tau(  49) = (  0.8000000  0.6000000  0.0000000  )
        50           C   tau(  50) = (  0.8666667  0.7333333  0.0000000  )
        51           C   tau(  51) = (  0.8000000  0.8000000  0.0000000  )
        52           C   tau(  52) = (  0.8666667  0.9333333  0.0000000  )

     number of k points=     1  Marzari-Vanderbilt smearing, width (Ry)=  0.0010
                       cart. coord. in units 2pi/alat
        k(    1) = (   0.0000000   0.0000000   0.0000000), wk =   1.0000000

                       cryst. coord.
        k(    1) = (   0.0000000   0.0000000   0.0000000), wk =   1.0000000

     Dense  grid:  1626001 G-vectors     FFT dimensions: ( 180, 180, 135)

     Smooth grid:   702581 G-vectors     FFT dimensions: ( 125, 125, 108)

     Dynamical RAM for                 wfc:      28.14 MB

     Dynamical RAM for     wfc (w. buffer):      84.42 MB

     Dynamical RAM for           str. fact:      12.41 MB

     Dynamical RAM for           local pot:       0.00 MB

     Dynamical RAM for          nlocal pot:      92.46 MB

     Dynamical RAM for                qrad:      19.73 MB

     Dynamical RAM for          rho,v,vnew:      58.92 MB

     Dynamical RAM for               rhoin:      19.64 MB

     Dynamical RAM for            rho*nmix:     132.32 MB

     Dynamical RAM for           G-vectors:      16.40 MB

     Dynamical RAM for          h,s,v(r/c):      11.63 MB

     Dynamical RAM for          <psi|beta>:       0.80 MB

     Dynamical RAM for                 psi:     112.56 MB

     Dynamical RAM for                hpsi:     112.56 MB

     Dynamical RAM for                spsi:     112.56 MB

     Dynamical RAM for      wfcinit/wfcrot:      93.45 MB

     Dynamical RAM for           addusdens:     975.89 MB

     Estimated static dynamical RAM per process >     486.96 MB

     Estimated max dynamical RAM per process >       1.43 GB

     Estimated total dynamical RAM >       8.57 GB
     Generating pointlists ...
     new r_m :   0.0252 (alat units)  0.5862 (a.u.) for type    1
     new r_m :   0.0476 (alat units)  1.1095 (a.u.) for type    2
     new r_m :   0.0476 (alat units)  1.1095 (a.u.) for type    3

     Check: negative core charge=   -0.000002

     Initial potential from superposition of free atoms

     starting charge  208.80532, renormalised to  209.00000

     negative rho (up, down):  5.377E-05 7.805E-03


---------------------------------------------------------------------------------
Carrying out rVV10 run using the following parameters:
Nqs =      20    Nr_points =    1024   r_max =   100.000
b_value =  6.30000    beta =  0.00901
     q_mesh =  0.00010000  0.00030000  0.00058939  0.00100810
               0.00161396  0.00249058  0.00375900  0.00559430
               0.00824984  0.01209221  0.01765183  0.02569619
               0.03733578  0.05417739  0.07854596  0.11380545
               0.16482331  0.23864234  0.34545298  0.50000000

Gradients computed in Reciprocal space

---------------------------------------------------------------------------------


     Starting wfcs are  207 randomized atomic wfcs

     total cpu time spent up to now is       77.1 secs

     Self-consistent Calculation

     iteration #  1     ecut=    70.00 Ry     beta= 0.70
     Davidson diagonalization with overlap
     ethr =  1.00E-02,  avg # of iterations =  3.0

     negative rho (up, down):  1.097E-04 8.297E-03

     total cpu time spent up to now is      206.3 secs

     total energy              =    -726.90633095 Ry
     Harris-Foulkes estimate   =    -734.96604727 Ry
     estimated scf accuracy    <      14.82629813 Ry

     total magnetization       =     7.00 Bohr mag/cell
     absolute magnetization    =     7.39 Bohr mag/cell

     iteration #  2     ecut=    70.00 Ry     beta= 0.70
     Davidson diagonalization with overlap
     ethr =  7.09E-03,  avg # of iterations =  5.0

     negative rho (up, down):  1.176E-04 7.427E-03

     total cpu time spent up to now is      331.6 secs

     total energy              =    -727.50351730 Ry
     Harris-Foulkes estimate   =    -745.92240372 Ry
     estimated scf accuracy    <      49.37239826 Ry

     total magnetization       =     2.62 Bohr mag/cell
     absolute magnetization    =     2.91 Bohr mag/cell

     iteration #  3     ecut=    70.00 Ry     beta= 0.70
     Davidson diagonalization with overlap
     ethr =  7.09E-03,  avg # of iterations =  4.0

     negative rho (up, down):  1.410E-04 6.952E-03

     total cpu time spent up to now is      441.3 secs

     total energy              =    -732.00443071 Ry
     Harris-Foulkes estimate   =    -736.37861850 Ry
     estimated scf accuracy    <      12.51983761 Ry

     total magnetization       =     3.00 Bohr mag/cell
     absolute magnetization    =     3.23 Bohr mag/cell

     iteration #  4     ecut=    70.00 Ry     beta= 0.70
     Davidson diagonalization with overlap
     ethr =  5.99E-03,  avg # of iterations =  3.0

     negative rho (up, down):  1.815E-04 7.767E-03

     total cpu time spent up to now is      539.9 secs

     total energy              =    -733.74336225 Ry
     Harris-Foulkes estimate   =    -734.95122672 Ry
     estimated scf accuracy    <       5.22291779 Ry

     total magnetization       =     3.00 Bohr mag/cell
     absolute magnetization    =     3.17 Bohr mag/cell

     iteration #  5     ecut=    70.00 Ry     beta= 0.70
     Davidson diagonalization with overlap
     ethr =  2.50E-03,  avg # of iterations =  2.0

     negative rho (up, down):  2.182E-04 1.044E-02

     total cpu time spent up to now is      635.9 secs

     total energy              =    -734.30092672 Ry
     Harris-Foulkes estimate   =    -735.10139518 Ry
     estimated scf accuracy    <       3.83226244 Ry

     total magnetization       =     1.00 Bohr mag/cell
     absolute magnetization    =     1.44 Bohr mag/cell

     iteration #  6     ecut=    70.00 Ry     beta= 0.70
     Davidson diagonalization with overlap
     ethr =  1.83E-03,  avg # of iterations =  2.0

     negative rho (up, down):  2.993E-04 1.499E-02

     total cpu time spent up to now is      730.8 secs

     total energy              =    -734.70342812 Ry
     Harris-Foulkes estimate   =    -734.76198191 Ry
     estimated scf accuracy    <       0.17030475 Ry

     total magnetization       =     1.00 Bohr mag/cell
     absolute magnetization    =     1.37 Bohr mag/cell

     iteration #  7     ecut=    70.00 Ry     beta= 0.70
     Davidson diagonalization with overlap
     ethr =  8.15E-05,  avg # of iterations = 11.0

     negative rho (up, down):  4.209E-04 1.068E-02

     total cpu time spent up to now is      855.5 secs

     total energy              =    -734.71975008 Ry
     Harris-Foulkes estimate   =    -734.80195671 Ry
     estimated scf accuracy    <       0.29273894 Ry

     total magnetization       =     1.00 Bohr mag/cell
     absolute magnetization    =     1.25 Bohr mag/cell

     iteration #  8     ecut=    70.00 Ry     beta= 0.70
     Davidson diagonalization with overlap
     ethr =  8.15E-05,  avg # of iterations =  6.0

     negative rho (up, down):  4.935E-04 5.094E-03

     total cpu time spent up to now is      959.0 secs

     total energy              =    -734.74875983 Ry
     Harris-Foulkes estimate   =    -734.76369129 Ry
     estimated scf accuracy    <       0.05493051 Ry

     total magnetization       =     1.00 Bohr mag/cell
     absolute magnetization    =     1.21 Bohr mag/cell

     iteration #  9     ecut=    70.00 Ry     beta= 0.70
     Davidson diagonalization with overlap
     ethr =  2.63E-05,  avg # of iterations =  3.0

     negative rho (up, down):  5.430E-04 3.002E-03

     total cpu time spent up to now is     1059.2 secs

     total energy              =    -734.75636896 Ry
     Harris-Foulkes estimate   =    -734.76059909 Ry
     estimated scf accuracy    <       0.04755488 Ry

     total magnetization       =     1.00 Bohr mag/cell
     absolute magnetization    =     1.17 Bohr mag/cell

     iteration # 10     ecut=    70.00 Ry     beta= 0.70
     Davidson diagonalization with overlap
     ethr =  2.28E-05,  avg # of iterations =  1.0

     negative rho (up, down):  5.464E-04 2.911E-03

     total cpu time spent up to now is     1151.8 secs

     total energy              =    -734.75615220 Ry
     Harris-Foulkes estimate   =    -734.75930681 Ry
     estimated scf accuracy    <       0.02897374 Ry

     total magnetization       =     1.00 Bohr mag/cell
     absolute magnetization    =     1.15 Bohr mag/cell

     iteration # 11     ecut=    70.00 Ry     beta= 0.70
     Davidson diagonalization with overlap
     ethr =  1.39E-05,  avg # of iterations =  1.0

     negative rho (up, down):  5.694E-04 2.706E-03

     total cpu time spent up to now is     1243.9 secs

     total energy              =    -734.75719597 Ry
     Harris-Foulkes estimate   =    -734.75905781 Ry
     estimated scf accuracy    <       0.02377884 Ry

     total magnetization       =     1.00 Bohr mag/cell
     absolute magnetization    =     1.15 Bohr mag/cell

     iteration # 12     ecut=    70.00 Ry     beta= 0.70
     Davidson diagonalization with overlap
     ethr =  1.14E-05,  avg # of iterations =  1.0

     negative rho (up, down):  5.716E-04 2.059E-03

     total cpu time spent up to now is     1336.2 secs

     total energy              =    -734.75796457 Ry
     Harris-Foulkes estimate   =    -734.75822395 Ry
     estimated scf accuracy    <       0.00243956 Ry

     total magnetization       =     1.00 Bohr mag/cell
     absolute magnetization    =     1.11 Bohr mag/cell

     iteration # 13     ecut=    70.00 Ry     beta= 0.70
     Davidson diagonalization with overlap
     ethr =  1.17E-06,  avg # of iterations =  4.0

     negative rho (up, down):  5.714E-04 1.798E-03

     total cpu time spent up to now is     1431.8 secs

     total energy              =    -734.75816362 Ry
     Harris-Foulkes estimate   =    -734.75817971 Ry
     estimated scf accuracy    <       0.00027379 Ry

     total magnetization       =     1.00 Bohr mag/cell
     absolute magnetization    =     1.10 Bohr mag/cell

     iteration # 14     ecut=    70.00 Ry     beta= 0.70
     Davidson diagonalization with overlap
     ethr =  1.31E-07,  avg # of iterations =  3.0

     negative rho (up, down):  5.642E-04 1.464E-03

     total cpu time spent up to now is     1526.2 secs

     total energy              =    -734.75818955 Ry
     Harris-Foulkes estimate   =    -734.75819215 Ry
     estimated scf accuracy    <       0.00012131 Ry

     total magnetization       =     1.00 Bohr mag/cell
     absolute magnetization    =     1.09 Bohr mag/cell

     iteration # 15     ecut=    70.00 Ry     beta= 0.70
     Davidson diagonalization with overlap
     ethr =  5.80E-08,  avg # of iterations =  2.0

     negative rho (up, down):  5.641E-04 1.461E-03

     total cpu time spent up to now is     1619.5 secs

     total energy              =    -734.75819941 Ry
     Harris-Foulkes estimate   =    -734.75820340 Ry
     estimated scf accuracy    <       0.00021714 Ry

     total magnetization       =     1.00 Bohr mag/cell
     absolute magnetization    =     1.08 Bohr mag/cell

     iteration # 16     ecut=    70.00 Ry     beta= 0.70
     Davidson diagonalization with overlap
     ethr =  5.80E-08,  avg # of iterations =  1.0

     negative rho (up, down):  5.628E-04 1.448E-03

     total cpu time spent up to now is     1711.8 secs

     total energy              =    -734.75820031 Ry
     Harris-Foulkes estimate   =    -734.75820234 Ry
     estimated scf accuracy    <       0.00014062 Ry

     total magnetization       =     1.00 Bohr mag/cell
     absolute magnetization    =     1.08 Bohr mag/cell

     iteration # 17     ecut=    70.00 Ry     beta= 0.70
     Davidson diagonalization with overlap
     ethr =  5.80E-08,  avg # of iterations =  1.0

     negative rho (up, down):  5.615E-04 1.422E-03

     total cpu time spent up to now is     1804.0 secs

     total energy              =    -734.75820212 Ry
     Harris-Foulkes estimate   =    -734.75820392 Ry
     estimated scf accuracy    <       0.00002043 Ry

     total magnetization       =     1.00 Bohr mag/cell
     absolute magnetization    =     1.07 Bohr mag/cell

     iteration # 18     ecut=    70.00 Ry     beta= 0.70
     Davidson diagonalization with overlap
     ethr =  9.77E-09,  avg # of iterations =  2.5

     negative rho (up, down):  5.612E-04 1.435E-03

     total cpu time spent up to now is     1897.9 secs

     total energy              =    -734.75820662 Ry
     Harris-Foulkes estimate   =    -734.75820570 Ry
     estimated scf accuracy    <       0.00009729 Ry

     total magnetization       =     1.00 Bohr mag/cell
     absolute magnetization    =     1.07 Bohr mag/cell

     iteration # 19     ecut=    70.00 Ry     beta= 0.70
     Davidson diagonalization with overlap
     ethr =  9.77E-09,  avg # of iterations =  1.5

     negative rho (up, down):  5.597E-04 1.441E-03

     total cpu time spent up to now is     1990.1 secs

     total energy              =    -734.75820357 Ry
     Harris-Foulkes estimate   =    -734.75820760 Ry
     estimated scf accuracy    <       0.00016246 Ry

     total magnetization       =     1.00 Bohr mag/cell
     absolute magnetization    =     1.07 Bohr mag/cell

     iteration # 20     ecut=    70.00 Ry     beta= 0.70
     Davidson diagonalization with overlap
     ethr =  9.77E-09,  avg # of iterations =  2.5

     negative rho (up, down):  5.594E-04 1.433E-03

     total cpu time spent up to now is     2088.6 secs

     total energy              =    -734.75820673 Ry
     Harris-Foulkes estimate   =    -734.75820749 Ry
     estimated scf accuracy    <       0.00001721 Ry

     total magnetization       =     1.00 Bohr mag/cell
     absolute magnetization    =     1.07 Bohr mag/cell

     iteration # 21     ecut=    70.00 Ry     beta= 0.70
     Davidson diagonalization with overlap
     ethr =  8.24E-09,  avg # of iterations =  1.5

     negative rho (up, down):  5.593E-04 1.433E-03

     total cpu time spent up to now is     2181.0 secs

     total energy              =    -734.75820731 Ry
     Harris-Foulkes estimate   =    -734.75820799 Ry
     estimated scf accuracy    <       0.00003632 Ry

     total magnetization       =     1.00 Bohr mag/cell
     absolute magnetization    =     1.06 Bohr mag/cell

     iteration # 22     ecut=    70.00 Ry     beta= 0.70
     Davidson diagonalization with overlap
     ethr =  8.24E-09,  avg # of iterations =  1.5

     negative rho (up, down):  5.592E-04 1.438E-03

     total cpu time spent up to now is     2274.5 secs

     total energy              =    -734.75820655 Ry
     Harris-Foulkes estimate   =    -734.75820855 Ry
     estimated scf accuracy    <       0.00002677 Ry

     total magnetization       =     1.00 Bohr mag/cell
     absolute magnetization    =     1.06 Bohr mag/cell

     iteration # 23     ecut=    70.00 Ry     beta= 0.70
     Davidson diagonalization with overlap
     ethr =  8.24E-09,  avg # of iterations =  2.5

     negative rho (up, down):  5.595E-04 1.425E-03

     total cpu time spent up to now is     2368.2 secs

     total energy              =    -734.75820770 Ry
     Harris-Foulkes estimate   =    -734.75820819 Ry
     estimated scf accuracy    <       0.00000507 Ry

     total magnetization       =     1.00 Bohr mag/cell
     absolute magnetization    =     1.06 Bohr mag/cell

     iteration # 24     ecut=    70.00 Ry     beta= 0.70
     Davidson diagonalization with overlap
     ethr =  2.43E-09,  avg # of iterations =  2.0

     negative rho (up, down):  5.596E-04 1.424E-03

     total cpu time spent up to now is     2463.2 secs

     total energy              =    -734.75820783 Ry
     Harris-Foulkes estimate   =    -734.75820834 Ry
     estimated scf accuracy    <       0.00001309 Ry

     total magnetization       =     1.00 Bohr mag/cell
     absolute magnetization    =     1.06 Bohr mag/cell

     iteration # 25     ecut=    70.00 Ry     beta= 0.70
     Davidson diagonalization with overlap
     ethr =  2.43E-09,  avg # of iterations =  1.0

     negative rho (up, down):  5.597E-04 1.420E-03

     total cpu time spent up to now is     2555.4 secs

     total energy              =    -734.75820800 Ry
     Harris-Foulkes estimate   =    -734.75820827 Ry
     estimated scf accuracy    <       0.00000675 Ry

     total magnetization       =     1.00 Bohr mag/cell
     absolute magnetization    =     1.06 Bohr mag/cell

     iteration # 26     ecut=    70.00 Ry     beta= 0.70
     Davidson diagonalization with overlap
     ethr =  2.43E-09,  avg # of iterations =  1.5

     negative rho (up, down):  5.599E-04 1.417E-03

     total cpu time spent up to now is     2648.5 secs

     total energy              =    -734.75820805 Ry
     Harris-Foulkes estimate   =    -734.75820817 Ry
     estimated scf accuracy    <       0.00000163 Ry

     total magnetization       =     1.00 Bohr mag/cell
     absolute magnetization    =     1.06 Bohr mag/cell

     iteration # 27     ecut=    70.00 Ry     beta= 0.70
     Davidson diagonalization with overlap
     ethr =  7.80E-10,  avg # of iterations =  2.5

     negative rho (up, down):  5.600E-04 1.416E-03

     Magnetic moment per site:
     atom:    1    charge:    0.2113    magn:   -0.0000    constr:    0.0000
     atom:    2    charge:    0.2113    magn:   -0.0000    constr:    0.0000
     atom:    3    charge:    1.7157    magn:    0.0016    constr:    0.0000
     atom:    4    charge:    1.7153    magn:    0.0017    constr:    0.0000
     atom:    5    charge:    1.7170    magn:    0.0001    constr:    0.0000
     atom:    6    charge:    1.7146    magn:   -0.0001    constr:    0.0000
     atom:    7    charge:    1.7170    magn:    0.0001    constr:    0.0000
     atom:    8    charge:    1.7153    magn:    0.0017    constr:    0.0000
     atom:    9    charge:    1.7158    magn:    0.0016    constr:    0.0000
     atom:   10    charge:    1.7171    magn:   -0.0009    constr:    0.0000
     atom:   11    charge:    1.7160    magn:    0.0005    constr:    0.0000
     atom:   12    charge:    1.7170    magn:   -0.0009    constr:    0.0000
     atom:   13    charge:    1.7159    magn:    0.0005    constr:    0.0000
     atom:   14    charge:    1.7169    magn:   -0.0010    constr:    0.0000
     atom:   15    charge:    1.7129    magn:    0.0072    constr:    0.0000
     atom:   16    charge:    1.7108    magn:    0.0132    constr:    0.0000
     atom:   17    charge:    1.7214    magn:    0.0030    constr:    0.0000
     atom:   18    charge:    1.7108    magn:    0.0132    constr:    0.0000
     atom:   19    charge:    1.7130    magn:    0.0073    constr:    0.0000
     atom:   20    charge:    1.7169    magn:   -0.0010    constr:    0.0000
     atom:   21    charge:    1.7160    magn:    0.0005    constr:    0.0000
     atom:   22    charge:    1.7170    magn:   -0.0009    constr:    0.0000
     atom:   23    charge:    1.7158    magn:    0.0016    constr:    0.0000
     atom:   24    charge:    1.7153    magn:    0.0017    constr:    0.0000
     atom:   25    charge:    1.7130    magn:    0.0072    constr:    0.0000
     atom:   26    charge:    1.7108    magn:    0.0131    constr:    0.0000
     atom:   27    charge:    1.8170    magn:    0.0792    constr:    0.0000
     atom:   28    charge:    7.0284    magn:    0.1548    constr:    0.0000
     atom:   29    charge:    1.8173    magn:    0.0799    constr:    0.0000
     atom:   30    charge:    1.7107    magn:    0.0130    constr:    0.0000
     atom:   31    charge:    1.7130    magn:    0.0072    constr:    0.0000
     atom:   32    charge:    1.7153    magn:    0.0017    constr:    0.0000
     atom:   33    charge:    1.7170    magn:    0.0001    constr:    0.0000
     atom:   34    charge:    1.7153    magn:   -0.0001    constr:    0.0000
     atom:   35    charge:    1.7170    magn:    0.0001    constr:    0.0000
     atom:   36    charge:    1.7146    magn:   -0.0001    constr:    0.0000
     atom:   37    charge:    1.7214    magn:    0.0031    constr:    0.0000
     atom:   38    charge:    1.7108    magn:    0.0132    constr:    0.0000
     atom:   39    charge:    1.8174    magn:    0.0799    constr:    0.0000
     atom:   40    charge:    1.7107    magn:    0.0130    constr:    0.0000
     atom:   41    charge:    1.7214    magn:    0.0031    constr:    0.0000
     atom:   42    charge:    1.7146    magn:   -0.0001    constr:    0.0000
     atom:   43    charge:    1.7170    magn:    0.0001    constr:    0.0000
     atom:   44    charge:    1.7153    magn:   -0.0000    constr:    0.0000
     atom:   45    charge:    1.7211    magn:   -0.0007    constr:    0.0000
     atom:   46    charge:    1.7153    magn:   -0.0000    constr:    0.0000
     atom:   47    charge:    1.7170    magn:    0.0001    constr:    0.0000
     atom:   48    charge:    1.7153    magn:    0.0017    constr:    0.0000
     atom:   49    charge:    1.7130    magn:    0.0073    constr:    0.0000
     atom:   50    charge:    1.7169    magn:   -0.0010    constr:    0.0000
     atom:   51    charge:    1.7130    magn:    0.0072    constr:    0.0000
     atom:   52    charge:    1.7153    magn:    0.0017    constr:    0.0000

     total cpu time spent up to now is     2743.9 secs

     End of self-consistent calculation

 ------ SPIN UP ------------


          k = 0.0000 0.0000 0.0000 ( 87777 PWs)   bands (ev):

   -19.8393 -18.9969 -18.9965 -18.9026 -18.9023 -18.8407 -18.7632 -17.1675
   -17.1674 -17.1305 -17.0863 -17.0860 -16.8083 -16.3270 -16.3269 -16.1814
   -16.1814 -16.1592 -15.7673 -14.4231 -14.4231 -14.1280 -14.0330 -14.0329
   -13.5755 -13.1652 -13.1652 -13.0787 -12.9359 -12.9358 -12.6306 -12.3151
   -12.3148 -11.7129 -11.6070 -11.6070 -11.1855 -10.9363 -10.9362  -9.5226
    -9.3626  -9.3625  -9.2420  -9.2321  -9.2321  -9.2228  -9.1057  -9.1055
    -9.0593  -9.0592  -8.9588  -8.7157  -8.7157  -7.9553  -7.8948  -7.8372
    -7.6623  -7.6622  -7.5329  -7.5328  -6.9364  -6.8410  -6.8404  -6.8161
    -6.7890  -6.7141  -6.7130  -6.7097  -6.6168  -6.6167  -6.5730  -6.5665
    -6.5663  -6.5515  -6.5205  -6.3964  -6.3964  -5.6119  -5.6118  -5.0271
    -5.0106  -4.9554  -4.8842  -4.8840  -4.7610  -4.7239  -4.7237  -4.5396
    -4.5396  -4.4682  -3.8501  -3.8500  -3.8169  -3.8168  -3.7815  -3.6379
    -3.6377  -3.4048  -1.8814  -1.8255  -1.8253  -1.7311  -1.7309  -1.2198
    -0.8346  -0.8344   0.9130   0.9493   0.9495   1.0967   1.0968   1.4997
     2.4748   2.7954   2.7957   2.8399   2.9336   2.9339   3.4058   3.4327
     3.6057   3.7234   3.7294   3.7496   3.8958   4.0135

     occupation numbers 
     1.0000   1.0000   1.0000   1.0000   1.0000   1.0000   1.0000   1.0000
     1.0000   1.0000   1.0000   1.0000   1.0000   1.0000   1.0000   1.0000
     1.0000   1.0000   1.0000   1.0000   1.0000   1.0000   1.0000   1.0000
     1.0000   1.0000   1.0000   1.0000   1.0000   1.0000   1.0000   1.0000
     1.0000   1.0000   1.0000   1.0000   1.0000   1.0000   1.0000   1.0000
     1.0000   1.0000   1.0000   1.0000   1.0000   1.0000   1.0000   1.0000
     1.0000   1.0000   1.0000   1.0000   1.0000   1.0000   1.0000   1.0000
     1.0000   1.0000   1.0000   1.0000   1.0000   1.0000   1.0000   1.0000
     1.0000   1.0000   1.0000   1.0000   1.0000   1.0000   1.0000   1.0000
     1.0000   1.0000   1.0000   1.0000   1.0000   1.0000   1.0000   1.0000
     1.0000   1.0000   1.0000   1.0000   1.0000   1.0000   1.0000   1.0000
     1.0000   1.0000   1.0000   1.0000   1.0000   1.0000   1.0000   1.0000
     1.0000   1.0000   1.0000   1.0000   1.0000   1.0000   1.0000   1.0000
     0.5034   0.4966   0.0000   0.0000   0.0000   0.0000   0.0000   0.0000
     0.0000   0.0000   0.0000   0.0000   0.0000   0.0000   0.0000   0.0000
     0.0000   0.0000   0.0000   0.0000   0.0000   0.0000

 ------ SPIN DOWN ----------


          k = 0.0000 0.0000 0.0000 ( 87777 PWs)   bands (ev):

   -19.8143 -18.9644 -18.9641 -18.8958 -18.8955 -18.8378 -18.6877 -17.1280
   -17.1280 -17.1145 -17.0644 -17.0642 -16.7748 -16.2896 -16.2895 -16.1597
   -16.1596 -16.1523 -15.6916 -14.3331 -14.3329 -14.1038 -14.0250 -14.0249
   -13.5330 -13.1398 -13.1398 -13.0656 -12.8993 -12.8991 -12.5658 -12.2038
   -12.2037 -11.6932 -11.5724 -11.5723 -11.0801 -10.8061 -10.8058  -9.4817
    -9.3431  -9.3430  -9.2343  -9.2233  -9.2233  -9.2105  -9.0028  -9.0028
    -8.9341  -8.9335  -8.8339  -8.6742  -8.6742  -7.9451  -7.8706  -7.8153
    -7.6133  -7.6133  -7.5153  -7.5152  -6.8864  -6.8399  -6.8393  -6.7887
    -6.7755  -6.7010  -6.6999  -6.6729  -6.5949  -6.5948  -6.5652  -6.5626
    -6.5623  -6.5508  -6.5143  -6.3555  -6.3554  -5.5843  -5.5843  -5.0080
    -4.9455  -4.8643  -4.8641  -4.7968  -4.7561  -4.7229  -4.7226  -4.5299
    -4.5299  -4.4521  -3.8461  -3.8460  -3.7914  -3.7912  -3.7823  -3.6195
    -3.6193  -3.3668  -1.8775  -1.8237  -1.8234  -1.7089  -1.7087  -1.1832
    -0.4331  -0.4316   0.9162   0.9525   0.9527   1.1200   1.1201   1.5119
     2.4758   2.7976   2.7979   2.8409   2.9610   2.9613   3.4139   3.4351
     3.6065   3.7227   3.7286   3.7483   3.9060   4.0182

     occupation numbers 
     1.0000   1.0000   1.0000   1.0000   1.0000   1.0000   1.0000   1.0000
     1.0000   1.0000   1.0000   1.0000   1.0000   1.0000   1.0000   1.0000
     1.0000   1.0000   1.0000   1.0000   1.0000   1.0000   1.0000   1.0000
     1.0000   1.0000   1.0000   1.0000   1.0000   1.0000   1.0000   1.0000
     1.0000   1.0000   1.0000   1.0000   1.0000   1.0000   1.0000   1.0000
     1.0000   1.0000   1.0000   1.0000   1.0000   1.0000   1.0000   1.0000
     1.0000   1.0000   1.0000   1.0000   1.0000   1.0000   1.0000   1.0000
     1.0000   1.0000   1.0000   1.0000   1.0000   1.0000   1.0000   1.0000
     1.0000   1.0000   1.0000   1.0000   1.0000   1.0000   1.0000   1.0000
     1.0000   1.0000   1.0000   1.0000   1.0000   1.0000   1.0000   1.0000
     1.0000   1.0000   1.0000   1.0000   1.0000   1.0000   1.0000   1.0000
     1.0000   1.0000   1.0000   1.0000   1.0000   1.0000   1.0000   1.0000
     1.0000   1.0000   1.0000   1.0000   1.0000   1.0000   1.0000   1.0000
     0.0000   0.0000   0.0000   0.0000   0.0000   0.0000   0.0000   0.0000
     0.0000   0.0000   0.0000   0.0000   0.0000   0.0000   0.0000   0.0000
     0.0000   0.0000   0.0000   0.0000   0.0000   0.0000

     the Fermi energy is    -0.8326 ev

!    total energy              =    -734.75820805 Ry
     Harris-Foulkes estimate   =    -734.75820823 Ry
     estimated scf accuracy    <       0.00000037 Ry

     The total energy is the sum of the following terms:

     one-electron contribution =   -2475.03593484 Ry
     hartree contribution      =    1293.26214562 Ry
     xc contribution           =    -275.91947446 Ry
     ewald contribution        =     722.93538380 Ry
     smearing contrib. (-TS)   =      -0.00032817 Ry

     total magnetization       =     1.00 Bohr mag/cell
     absolute magnetization    =     1.06 Bohr mag/cell

     convergence has been achieved in  27 iterations

     Writing output data file cobre-baricentro-distance-4.5.save/

     init_run     :     74.77s CPU     76.05s WALL (       1 calls)
     electrons    :   2620.46s CPU   2666.92s WALL (       1 calls)

     Called by init_run:
     wfcinit      :     42.37s CPU     42.58s WALL (       1 calls)
     wfcinit:atom :      0.04s CPU      0.07s WALL (       2 calls)
     wfcinit:wfcr :     41.98s CPU     42.11s WALL (       2 calls)
     potinit      :     13.29s CPU     13.74s WALL (       1 calls)
     hinit0       :     10.44s CPU     10.48s WALL (       1 calls)

     Called by electrons:
     c_bands      :   1632.28s CPU   1640.86s WALL (      27 calls)
     sum_band     :    572.79s CPU    588.21s WALL (      27 calls)
     v_of_rho     :    203.40s CPU    212.75s WALL (      28 calls)
     v_h          :      2.15s CPU      2.23s WALL (      28 calls)
     v_xc         :    201.25s CPU    210.53s WALL (      28 calls)
     newd         :    207.87s CPU    221.53s WALL (      28 calls)
     mix_rho      :     12.34s CPU     12.55s WALL (      27 calls)

     Called by c_bands:
     init_us_2    :      5.16s CPU      5.19s WALL (     110 calls)
     cegterg      :   1619.94s CPU   1628.44s WALL (      54 calls)

     Called by sum_band:
     sum_band:bec :      0.04s CPU      0.04s WALL (      54 calls)
     addusdens    :    357.45s CPU    371.64s WALL (      27 calls)

     Called by *egterg:
     h_psi        :    870.30s CPU    876.08s WALL (     200 calls)
     s_psi        :    294.40s CPU    294.50s WALL (     200 calls)
     g_psi        :      0.86s CPU      0.86s WALL (     144 calls)
     cdiaghg      :     12.47s CPU     12.47s WALL (     198 calls)
     cegterg:over :    190.74s CPU    190.79s WALL (     144 calls)
     cegterg:upda :    111.18s CPU    111.89s WALL (     144 calls)
     cegterg:last :     86.57s CPU     86.58s WALL (      54 calls)

     Called by h_psi:
     h_psi:pot    :    869.30s CPU    874.04s WALL (     200 calls)
     h_psi:calbec :    293.23s CPU    293.32s WALL (     200 calls)
     vloc_psi     :    281.32s CPU    285.92s WALL (     200 calls)
     add_vuspsi   :    294.74s CPU    294.79s WALL (     200 calls)

     General routines
     calbec       :    424.08s CPU    424.22s WALL (     254 calls)
     fft          :    121.40s CPU    125.21s WALL (    2094 calls)
     ffts         :      2.03s CPU      2.10s WALL (     110 calls)
     fftw         :    299.00s CPU    304.14s WALL (   37364 calls)
     interpolate  :      4.82s CPU      4.96s WALL (      56 calls)

     Parallel routines
     fft_scatt_xy :     73.83s CPU     74.75s WALL (   39568 calls)
     fft_scatt_yz :    145.33s CPU    152.16s WALL (   39568 calls)

     PWSCF        :  44m56.48s CPU  45m44.57s WALL


   This run was terminated on:   8:35:16   8Sep2022            

=------------------------------------------------------------------------------=
   JOB DONE.
=------------------------------------------------------------------------------=
