
     Program PWSCF v.6.4.1 starts on  8Sep2022 at  9:24:24 

     This program is part of the open-source Quantum ESPRESSO suite
     for quantum simulation of materials; please cite
         "P. Giannozzi et al., J. Phys.:Condens. Matter 21 395502 (2009);
         "P. Giannozzi et al., J. Phys.:Condens. Matter 29 465901 (2017);
          URL http://www.quantum-espresso.org", 
     in publications or presentations arising from this work. More details at
     http://www.quantum-espresso.org/quote

     Parallel version (MPI), running on     6 processors

     MPI processes distributed on     1 nodes
     R & G space division:  proc/nbgrp/npool/nimage =       6
     Reading input from distance-3.5.in

     Current dimensions of program PWSCF are:
     Max number of different atomic species (ntypx) = 10
     Max number of k-points (npk) =  40000
     Max angular momentum in pseudopotentials (lmaxx) =  3

     IMPORTANT: XC functional enforced from input :
     Exchange-correlation      = RVV10 ( 1  4 13  4 3 0)
     Any further DFT definition will be discarded
     Please, verify this is what you really want

               file H.pbe-rrkjus.UPF: wavefunction(s)  1S renormalized
               file Cu.pbe-dn-rrkjus_psl.1.0.0.UPF: wavefunction(s)  3D renormalized

     Subspace diagonalization in iterative solution of the eigenvalue problem:
     a serial algorithm will be used


     Parallelization info
     --------------------
     sticks:   dense  smooth     PW     G-vecs:    dense   smooth      PW
     Min        3051    1746    432               270999   117096   14629
     Max        3053    1747    437               271001   117099   14630
     Sum       18313   10477   2611              1626001   702581   87777



     bravais-lattice index     =            4
     lattice parameter (alat)  =      23.2937  a.u.
     unit-cell volume          =    8879.8548 (a.u.)^3
     number of atoms/cell      =           52
     number of atomic types    =            3
     number of electrons       =       209.00
     number of Kohn-Sham states=          126
     kinetic-energy cutoff     =      70.0000  Ry
     charge density cutoff     =     490.0000  Ry
     convergence threshold     =      1.0E-06
     mixing beta               =       0.7000
     number of iterations used =            8  plain     mixing
     Exchange-correlation      = RVV10 ( 1  4 13  4 3 0)

     celldm(1)=  23.293684  celldm(2)=   0.000000  celldm(3)=   0.811261
     celldm(4)=   0.000000  celldm(5)=   0.000000  celldm(6)=   0.000000

     crystal axes: (cart. coord. in units of alat)
               a(1) = (   1.000000   0.000000   0.000000 )  
               a(2) = (  -0.500000   0.866025   0.000000 )  
               a(3) = (   0.000000   0.000000   0.811261 )  

     reciprocal axes: (cart. coord. in units 2 pi/alat)
               b(1) = (  1.000000  0.577350 -0.000000 )  
               b(2) = (  0.000000  1.154701  0.000000 )  
               b(3) = (  0.000000 -0.000000  1.232649 )  


     PseudoPot. # 1 for H  read from file:
     /home/cristian/Escritorio/Proyecto_Grafeno/pseudopotenciales/H.pbe-rrkjus.UPF
     MD5 check sum: 7cc9d459525c9a0585f487a71c3c9563
     Pseudo is Ultrasoft, Zval =  1.0
     Generated by new atomic code, or converted to UPF format
     Using radial grid of 1061 points,  2 beta functions with: 
                l(1) =   0
                l(2) =   0
     Q(r) pseudized with 0 coefficients 


     PseudoPot. # 2 for C  read from file:
     /home/cristian/Escritorio/Proyecto_Grafeno/pseudopotenciales/C.pbe-n-rrkjus_psl.1.0.0.UPF
     MD5 check sum: 1fdd950c42eb37d8afe3dd2f8d12311e
     Pseudo is Ultrasoft + core correction, Zval =  4.0
     Generated using "atomic" code by A. Dal Corso v.6.3MaX
     Using radial grid of 1073 points,  4 beta functions with: 
                l(1) =   0
                l(2) =   0
                l(3) =   1
                l(4) =   1
     Q(r) pseudized with 0 coefficients 


     PseudoPot. # 3 for Cu read from file:
     /home/cristian/Escritorio/Proyecto_Grafeno/pseudopotenciales/Cu.pbe-dn-rrkjus_psl.1.0.0.UPF
     MD5 check sum: ba3d6c84e19846e79d48cdc68ff7152b
     Pseudo is Ultrasoft + core correction, Zval = 11.0
     Generated using "atomic" code by A. Dal Corso v.6.3
     Using radial grid of 1199 points,  6 beta functions with: 
                l(1) =   0
                l(2) =   0
                l(3) =   1
                l(4) =   1
                l(5) =   2
                l(6) =   2
     Q(r) pseudized with 0 coefficients 


     vdW kernel table read from file rVV10_kernel_table
     MD5 check sum: b8e2538accc0c0b3206b45ba4daaba6c

     atomic species   valence    mass     pseudopotential
        H              1.00     1.00794     H ( 1.00)
        C              4.00    12.01070     C ( 1.00)
        Cu            11.00    63.54600     Cu( 1.00)

     Starting magnetic structure 
     atomic species   magnetization
        H            0.500
        C            0.300
        Cu           0.800

     No symmetry found


                                    s                        frac. trans.

      isym =  1     identity                                     

 cryst.   s( 1) = (     1          0          0      )
                  (     0          1          0      )
                  (     0          0          1      )

 cart.    s( 1) = (  1.0000000  0.0000000  0.0000000 )
                  (  0.0000000  1.0000000  0.0000000 )
                  (  0.0000000  0.0000000  1.0000000 )


     point group C_1 (1)    
     there are  1 classes
     the character table:

       E    
A      1.00

     the symmetry operations in each class and the name of the first element:

     E        1
          identity                                               

   Cartesian axes

     site n.     atom                  positions (alat units)
         1           H   tau(   1) = (   0.2361603   0.4618802   0.2839414  )
         2           H   tau(   2) = (   0.2971730   0.4618802   0.2839414  )
         3           C   tau(   3) = (   0.0000000   0.0000000   0.0000000  )
         4           C   tau(   4) = (   0.0000000   0.1154701   0.0000000  )
         5           C   tau(   5) = (  -0.1000000   0.1732051   0.0000000  )
         6           C   tau(   6) = (  -0.1000000   0.2886751   0.0000000  )
         7           C   tau(   7) = (  -0.2000000   0.3464102   0.0000000  )
         8           C   tau(   8) = (  -0.2000000   0.4618802   0.0000000  )
         9           C   tau(   9) = (  -0.3000000   0.5196152   0.0000000  )
        10           C   tau(  10) = (  -0.3000000   0.6350853   0.0000000  )
        11           C   tau(  11) = (  -0.4000000   0.6928203   0.0000000  )
        12           C   tau(  12) = (  -0.4000000   0.8082904   0.0000000  )
        13           C   tau(  13) = (   0.2000000   0.0000000   0.0000000  )
        14           C   tau(  14) = (   0.2000000   0.1154701   0.0000000  )
        15           C   tau(  15) = (   0.1000000   0.1732051   0.0000000  )
        16           C   tau(  16) = (   0.1000000   0.2886751   0.0000000  )
        17           C   tau(  17) = (   0.0000000   0.3464102   0.0000000  )
        18           C   tau(  18) = (   0.0000000   0.4618802   0.0000000  )
        19           C   tau(  19) = (  -0.1000000   0.5196152   0.0000000  )
        20           C   tau(  20) = (  -0.1000000   0.6350853   0.0000000  )
        21           C   tau(  21) = (  -0.2000000   0.6928203   0.0000000  )
        22           C   tau(  22) = (  -0.2000000   0.8082904   0.0000000  )
        23           C   tau(  23) = (   0.4000000   0.0000000   0.0000000  )
        24           C   tau(  24) = (   0.4000000   0.1154701   0.0000000  )
        25           C   tau(  25) = (   0.3000000   0.1732051   0.0000000  )
        26           C   tau(  26) = (   0.3000000   0.2886751   0.0000000  )
        27           C   tau(  27) = (   0.2000000   0.3464102   0.0000000  )
        28           Cu  tau(  28) = (   0.2000000   0.4618802   0.0000000  )
        29           C   tau(  29) = (   0.1000000   0.5196152   0.0000000  )
        30           C   tau(  30) = (   0.1000000   0.6350853   0.0000000  )
        31           C   tau(  31) = (   0.0000000   0.6928203   0.0000000  )
        32           C   tau(  32) = (   0.0000000   0.8082904   0.0000000  )
        33           C   tau(  33) = (   0.6000000   0.0000000   0.0000000  )
        34           C   tau(  34) = (   0.6000000   0.1154701   0.0000000  )
        35           C   tau(  35) = (   0.5000000   0.1732051   0.0000000  )
        36           C   tau(  36) = (   0.5000000   0.2886751   0.0000000  )
        37           C   tau(  37) = (   0.4000000   0.3464102   0.0000000  )
        38           C   tau(  38) = (   0.4000000   0.4618802   0.0000000  )
        39           C   tau(  39) = (   0.3000000   0.5196152   0.0000000  )
        40           C   tau(  40) = (   0.3000000   0.6350853   0.0000000  )
        41           C   tau(  41) = (   0.2000000   0.6928203   0.0000000  )
        42           C   tau(  42) = (   0.2000000   0.8082904   0.0000000  )
        43           C   tau(  43) = (   0.8000000   0.0000000   0.0000000  )
        44           C   tau(  44) = (   0.8000000   0.1154701   0.0000000  )
        45           C   tau(  45) = (   0.7000000   0.1732051   0.0000000  )
        46           C   tau(  46) = (   0.7000000   0.2886751   0.0000000  )
        47           C   tau(  47) = (   0.6000000   0.3464102   0.0000000  )
        48           C   tau(  48) = (   0.6000000   0.4618802   0.0000000  )
        49           C   tau(  49) = (   0.5000000   0.5196152   0.0000000  )
        50           C   tau(  50) = (   0.5000000   0.6350853   0.0000000  )
        51           C   tau(  51) = (   0.4000000   0.6928203   0.0000000  )
        52           C   tau(  52) = (   0.4000000   0.8082904   0.0000000  )

   Crystallographic axes

     site n.     atom                  positions (cryst. coord.)
         1           H   tau(   1) = (  0.5028270  0.5333333  0.3500000  )
         2           H   tau(   2) = (  0.5638397  0.5333333  0.3500000  )
         3           C   tau(   3) = (  0.0000000  0.0000000  0.0000000  )
         4           C   tau(   4) = (  0.0666667  0.1333333  0.0000000  )
         5           C   tau(   5) = (  0.0000000  0.2000000  0.0000000  )
         6           C   tau(   6) = (  0.0666667  0.3333333  0.0000000  )
         7           C   tau(   7) = (  0.0000000  0.4000000  0.0000000  )
         8           C   tau(   8) = (  0.0666667  0.5333333  0.0000000  )
         9           C   tau(   9) = (  0.0000000  0.6000000  0.0000000  )
        10           C   tau(  10) = (  0.0666667  0.7333333  0.0000000  )
        11           C   tau(  11) = (  0.0000000  0.8000000  0.0000000  )
        12           C   tau(  12) = (  0.0666667  0.9333333  0.0000000  )
        13           C   tau(  13) = (  0.2000000  0.0000000  0.0000000  )
        14           C   tau(  14) = (  0.2666667  0.1333333  0.0000000  )
        15           C   tau(  15) = (  0.2000000  0.2000000  0.0000000  )
        16           C   tau(  16) = (  0.2666667  0.3333333  0.0000000  )
        17           C   tau(  17) = (  0.2000000  0.4000000  0.0000000  )
        18           C   tau(  18) = (  0.2666667  0.5333333  0.0000000  )
        19           C   tau(  19) = (  0.2000000  0.6000000  0.0000000  )
        20           C   tau(  20) = (  0.2666667  0.7333333  0.0000000  )
        21           C   tau(  21) = (  0.2000000  0.8000000  0.0000000  )
        22           C   tau(  22) = (  0.2666667  0.9333333  0.0000000  )
        23           C   tau(  23) = (  0.4000000  0.0000000  0.0000000  )
        24           C   tau(  24) = (  0.4666667  0.1333333  0.0000000  )
        25           C   tau(  25) = (  0.4000000  0.2000000  0.0000000  )
        26           C   tau(  26) = (  0.4666667  0.3333333  0.0000000  )
        27           C   tau(  27) = (  0.4000000  0.4000000  0.0000000  )
        28           Cu  tau(  28) = (  0.4666667  0.5333333  0.0000000  )
        29           C   tau(  29) = (  0.4000000  0.6000000  0.0000000  )
        30           C   tau(  30) = (  0.4666667  0.7333333  0.0000000  )
        31           C   tau(  31) = (  0.4000000  0.8000000  0.0000000  )
        32           C   tau(  32) = (  0.4666667  0.9333333  0.0000000  )
        33           C   tau(  33) = (  0.6000000  0.0000000  0.0000000  )
        34           C   tau(  34) = (  0.6666667  0.1333333  0.0000000  )
        35           C   tau(  35) = (  0.6000000  0.2000000  0.0000000  )
        36           C   tau(  36) = (  0.6666667  0.3333333  0.0000000  )
        37           C   tau(  37) = (  0.6000000  0.4000000  0.0000000  )
        38           C   tau(  38) = (  0.6666667  0.5333333  0.0000000  )
        39           C   tau(  39) = (  0.6000000  0.6000000  0.0000000  )
        40           C   tau(  40) = (  0.6666667  0.7333333  0.0000000  )
        41           C   tau(  41) = (  0.6000000  0.8000000  0.0000000  )
        42           C   tau(  42) = (  0.6666667  0.9333333  0.0000000  )
        43           C   tau(  43) = (  0.8000000  0.0000000  0.0000000  )
        44           C   tau(  44) = (  0.8666667  0.1333333  0.0000000  )
        45           C   tau(  45) = (  0.8000000  0.2000000  0.0000000  )
        46           C   tau(  46) = (  0.8666667  0.3333333  0.0000000  )
        47           C   tau(  47) = (  0.8000000  0.4000000  0.0000000  )
        48           C   tau(  48) = (  0.8666667  0.5333333  0.0000000  )
        49           C   tau(  49) = (  0.8000000  0.6000000  0.0000000  )
        50           C   tau(  50) = (  0.8666667  0.7333333  0.0000000  )
        51           C   tau(  51) = (  0.8000000  0.8000000  0.0000000  )
        52           C   tau(  52) = (  0.8666667  0.9333333  0.0000000  )

     number of k points=     1  Marzari-Vanderbilt smearing, width (Ry)=  0.0010
                       cart. coord. in units 2pi/alat
        k(    1) = (   0.0000000   0.0000000   0.0000000), wk =   1.0000000

                       cryst. coord.
        k(    1) = (   0.0000000   0.0000000   0.0000000), wk =   1.0000000

     Dense  grid:  1626001 G-vectors     FFT dimensions: ( 180, 180, 135)

     Smooth grid:   702581 G-vectors     FFT dimensions: ( 125, 125, 108)

     Dynamical RAM for                 wfc:      28.14 MB

     Dynamical RAM for     wfc (w. buffer):      84.42 MB

     Dynamical RAM for           str. fact:      12.41 MB

     Dynamical RAM for           local pot:       0.00 MB

     Dynamical RAM for          nlocal pot:      92.46 MB

     Dynamical RAM for                qrad:      19.73 MB

     Dynamical RAM for          rho,v,vnew:      58.92 MB

     Dynamical RAM for               rhoin:      19.64 MB

     Dynamical RAM for            rho*nmix:     132.32 MB

     Dynamical RAM for           G-vectors:      16.40 MB

     Dynamical RAM for          h,s,v(r/c):      11.63 MB

     Dynamical RAM for          <psi|beta>:       0.80 MB

     Dynamical RAM for                 psi:     112.56 MB

     Dynamical RAM for                hpsi:     112.56 MB

     Dynamical RAM for                spsi:     112.56 MB

     Dynamical RAM for      wfcinit/wfcrot:      93.45 MB

     Dynamical RAM for           addusdens:     975.89 MB

     Estimated static dynamical RAM per process >     486.96 MB

     Estimated max dynamical RAM per process >       1.43 GB

     Estimated total dynamical RAM >       8.57 GB
     Generating pointlists ...
     new r_m :   0.0252 (alat units)  0.5862 (a.u.) for type    1
     new r_m :   0.0476 (alat units)  1.1095 (a.u.) for type    2
     new r_m :   0.0476 (alat units)  1.1095 (a.u.) for type    3

     Check: negative core charge=   -0.000002

     Initial potential from superposition of free atoms

     starting charge  208.80532, renormalised to  209.00000

     negative rho (up, down):  5.731E-05 9.188E-03


---------------------------------------------------------------------------------
Carrying out rVV10 run using the following parameters:
Nqs =      20    Nr_points =    1024   r_max =   100.000
b_value =  6.30000    beta =  0.00901
     q_mesh =  0.00010000  0.00030000  0.00058939  0.00100810
               0.00161396  0.00249058  0.00375900  0.00559430
               0.00824984  0.01209221  0.01765183  0.02569619
               0.03733578  0.05417739  0.07854596  0.11380545
               0.16482331  0.23864234  0.34545298  0.50000000

Gradients computed in Reciprocal space

---------------------------------------------------------------------------------


     Starting wfcs are  207 randomized atomic wfcs

     total cpu time spent up to now is       75.9 secs

     Self-consistent Calculation

     iteration #  1     ecut=    70.00 Ry     beta= 0.70
     Davidson diagonalization with overlap
     ethr =  1.00E-02,  avg # of iterations =  5.0

     negative rho (up, down):  1.270E-04 9.564E-03

     total cpu time spent up to now is      207.2 secs

     total energy              =    -727.23446944 Ry
     Harris-Foulkes estimate   =    -734.91019719 Ry
     estimated scf accuracy    <      14.41095878 Ry

     total magnetization       =     7.00 Bohr mag/cell
     absolute magnetization    =     7.39 Bohr mag/cell

     iteration #  2     ecut=    70.00 Ry     beta= 0.70
     Davidson diagonalization with overlap
     ethr =  6.90E-03,  avg # of iterations =  3.5

     negative rho (up, down):  1.351E-04 8.836E-03

     total cpu time spent up to now is      331.2 secs

     total energy              =    -728.14373555 Ry
     Harris-Foulkes estimate   =    -745.18857338 Ry
     estimated scf accuracy    <      44.83285172 Ry

     total magnetization       =     3.00 Bohr mag/cell
     absolute magnetization    =     3.25 Bohr mag/cell

     iteration #  3     ecut=    70.00 Ry     beta= 0.70
     Davidson diagonalization with overlap
     ethr =  6.90E-03,  avg # of iterations =  4.0

     negative rho (up, down):  1.630E-04 8.184E-03

     total cpu time spent up to now is      438.5 secs

     total energy              =    -732.10639227 Ry
     Harris-Foulkes estimate   =    -736.19213993 Ry
     estimated scf accuracy    <      11.48982363 Ry

     total magnetization       =     2.91 Bohr mag/cell
     absolute magnetization    =     3.15 Bohr mag/cell

     iteration #  4     ecut=    70.00 Ry     beta= 0.70
     Davidson diagonalization with overlap
     ethr =  5.50E-03,  avg # of iterations =  3.0

     negative rho (up, down):  2.063E-04 8.559E-03

     total cpu time spent up to now is      539.4 secs

     total energy              =    -733.73164327 Ry
     Harris-Foulkes estimate   =    -735.02171112 Ry
     estimated scf accuracy    <       5.59902539 Ry

     total magnetization       =     3.00 Bohr mag/cell
     absolute magnetization    =     3.18 Bohr mag/cell

     iteration #  5     ecut=    70.00 Ry     beta= 0.70
     Davidson diagonalization with overlap
     ethr =  2.68E-03,  avg # of iterations =  2.0

     negative rho (up, down):  2.427E-04 1.147E-02

     total cpu time spent up to now is      634.7 secs

     total energy              =    -734.32929053 Ry
     Harris-Foulkes estimate   =    -735.07832087 Ry
     estimated scf accuracy    <       3.58097995 Ry

     total magnetization       =     1.00 Bohr mag/cell
     absolute magnetization    =     1.47 Bohr mag/cell

     iteration #  6     ecut=    70.00 Ry     beta= 0.70
     Davidson diagonalization with overlap
     ethr =  1.71E-03,  avg # of iterations =  3.0

     negative rho (up, down):  3.180E-04 1.568E-02

     total cpu time spent up to now is      729.8 secs

     total energy              =    -734.68943003 Ry
     Harris-Foulkes estimate   =    -734.77355243 Ry
     estimated scf accuracy    <       0.22578979 Ry

     total magnetization       =     1.00 Bohr mag/cell
     absolute magnetization    =     1.37 Bohr mag/cell

     iteration #  7     ecut=    70.00 Ry     beta= 0.70
     Davidson diagonalization with overlap
     ethr =  1.08E-04,  avg # of iterations =  8.5

     negative rho (up, down):  4.564E-04 1.118E-02

     total cpu time spent up to now is      849.8 secs

     total energy              =    -734.72082726 Ry
     Harris-Foulkes estimate   =    -734.80470028 Ry
     estimated scf accuracy    <       0.30543221 Ry

     total magnetization       =     1.00 Bohr mag/cell
     absolute magnetization    =     1.26 Bohr mag/cell

     iteration #  8     ecut=    70.00 Ry     beta= 0.70
     Davidson diagonalization with overlap
     ethr =  1.08E-04,  avg # of iterations =  3.0

     negative rho (up, down):  5.320E-04 5.227E-03

     total cpu time spent up to now is      946.5 secs

     total energy              =    -734.75086304 Ry
     Harris-Foulkes estimate   =    -734.76505319 Ry
     estimated scf accuracy    <       0.05269257 Ry

     total magnetization       =     1.00 Bohr mag/cell
     absolute magnetization    =     1.21 Bohr mag/cell

     iteration #  9     ecut=    70.00 Ry     beta= 0.70
     Davidson diagonalization with overlap
     ethr =  2.52E-05,  avg # of iterations =  4.0

     negative rho (up, down):  5.792E-04 3.159E-03

     total cpu time spent up to now is     1049.1 secs

     total energy              =    -734.75802242 Ry
     Harris-Foulkes estimate   =    -734.76163167 Ry
     estimated scf accuracy    <       0.04197312 Ry

     total magnetization       =     1.00 Bohr mag/cell
     absolute magnetization    =     1.17 Bohr mag/cell

     iteration # 10     ecut=    70.00 Ry     beta= 0.70
     Davidson diagonalization with overlap
     ethr =  2.01E-05,  avg # of iterations =  1.0

     negative rho (up, down):  5.849E-04 3.049E-03

     total cpu time spent up to now is     1143.1 secs

     total energy              =    -734.75789433 Ry
     Harris-Foulkes estimate   =    -734.76131477 Ry
     estimated scf accuracy    <       0.03067678 Ry

     total magnetization       =     1.00 Bohr mag/cell
     absolute magnetization    =     1.15 Bohr mag/cell

     iteration # 11     ecut=    70.00 Ry     beta= 0.70
     Davidson diagonalization with overlap
     ethr =  1.47E-05,  avg # of iterations =  1.0

     negative rho (up, down):  6.095E-04 2.803E-03

     total cpu time spent up to now is     1236.0 secs

     total energy              =    -734.75904484 Ry
     Harris-Foulkes estimate   =    -734.76067328 Ry
     estimated scf accuracy    <       0.02169362 Ry

     total magnetization       =     1.00 Bohr mag/cell
     absolute magnetization    =     1.14 Bohr mag/cell

     iteration # 12     ecut=    70.00 Ry     beta= 0.70
     Davidson diagonalization with overlap
     ethr =  1.04E-05,  avg # of iterations =  1.0

     negative rho (up, down):  6.110E-04 2.110E-03

     total cpu time spent up to now is     1328.8 secs

     total energy              =    -734.75978399 Ry
     Harris-Foulkes estimate   =    -734.75996489 Ry
     estimated scf accuracy    <       0.00120427 Ry

     total magnetization       =     1.00 Bohr mag/cell
     absolute magnetization    =     1.11 Bohr mag/cell

     iteration # 13     ecut=    70.00 Ry     beta= 0.70
     Davidson diagonalization with overlap
     ethr =  5.76E-07,  avg # of iterations =  3.5

     negative rho (up, down):  6.088E-04 1.800E-03

     total cpu time spent up to now is     1427.4 secs

     total energy              =    -734.75994518 Ry
     Harris-Foulkes estimate   =    -734.75995389 Ry
     estimated scf accuracy    <       0.00016661 Ry

     total magnetization       =     1.00 Bohr mag/cell
     absolute magnetization    =     1.10 Bohr mag/cell

     iteration # 14     ecut=    70.00 Ry     beta= 0.70
     Davidson diagonalization with overlap
     ethr =  7.97E-08,  avg # of iterations =  2.5

     negative rho (up, down):  6.016E-04 1.546E-03

     total cpu time spent up to now is     1526.2 secs

     total energy              =    -734.75997135 Ry
     Harris-Foulkes estimate   =    -734.75997416 Ry
     estimated scf accuracy    <       0.00036180 Ry

     total magnetization       =     1.00 Bohr mag/cell
     absolute magnetization    =     1.08 Bohr mag/cell

     iteration # 15     ecut=    70.00 Ry     beta= 0.70
     Davidson diagonalization with overlap
     ethr =  7.97E-08,  avg # of iterations =  1.0

     negative rho (up, down):  6.019E-04 1.564E-03

     total cpu time spent up to now is     1618.6 secs

     total energy              =    -734.75997837 Ry
     Harris-Foulkes estimate   =    -734.75998043 Ry
     estimated scf accuracy    <       0.00021165 Ry

     total magnetization       =     1.00 Bohr mag/cell
     absolute magnetization    =     1.08 Bohr mag/cell

     iteration # 16     ecut=    70.00 Ry     beta= 0.70
     Davidson diagonalization with overlap
     ethr =  7.97E-08,  avg # of iterations =  1.0

     negative rho (up, down):  6.000E-04 1.520E-03

     total cpu time spent up to now is     1711.1 secs

     total energy              =    -734.75997917 Ry
     Harris-Foulkes estimate   =    -734.75998062 Ry
     estimated scf accuracy    <       0.00008154 Ry

     total magnetization       =     1.00 Bohr mag/cell
     absolute magnetization    =     1.07 Bohr mag/cell

     iteration # 17     ecut=    70.00 Ry     beta= 0.70
     Davidson diagonalization with overlap
     ethr =  3.90E-08,  avg # of iterations =  1.0

     negative rho (up, down):  5.991E-04 1.518E-03

     total cpu time spent up to now is     1803.6 secs

     total energy              =    -734.75998155 Ry
     Harris-Foulkes estimate   =    -734.75998288 Ry
     estimated scf accuracy    <       0.00003307 Ry

     total magnetization       =     1.00 Bohr mag/cell
     absolute magnetization    =     1.07 Bohr mag/cell

     iteration # 18     ecut=    70.00 Ry     beta= 0.70
     Davidson diagonalization with overlap
     ethr =  1.58E-08,  avg # of iterations =  1.5

     negative rho (up, down):  5.981E-04 1.512E-03

     total cpu time spent up to now is     1896.6 secs

     total energy              =    -734.75998415 Ry
     Harris-Foulkes estimate   =    -734.75998387 Ry
     estimated scf accuracy    <       0.00007426 Ry

     total magnetization       =     1.00 Bohr mag/cell
     absolute magnetization    =     1.07 Bohr mag/cell

     iteration # 19     ecut=    70.00 Ry     beta= 0.70
     Davidson diagonalization with overlap
     ethr =  1.58E-08,  avg # of iterations =  2.0

     negative rho (up, down):  5.977E-04 1.522E-03

     total cpu time spent up to now is     1989.7 secs

     total energy              =    -734.75998469 Ry
     Harris-Foulkes estimate   =    -734.75998574 Ry
     estimated scf accuracy    <       0.00006394 Ry

     total magnetization       =     1.00 Bohr mag/cell
     absolute magnetization    =     1.07 Bohr mag/cell

     iteration # 20     ecut=    70.00 Ry     beta= 0.70
     Davidson diagonalization with overlap
     ethr =  1.58E-08,  avg # of iterations =  1.0

     negative rho (up, down):  5.974E-04 1.520E-03

     total cpu time spent up to now is     2082.5 secs

     total energy              =    -734.75998509 Ry
     Harris-Foulkes estimate   =    -734.75998549 Ry
     estimated scf accuracy    <       0.00004225 Ry

     total magnetization       =     1.00 Bohr mag/cell
     absolute magnetization    =     1.07 Bohr mag/cell

     iteration # 21     ecut=    70.00 Ry     beta= 0.70
     Davidson diagonalization with overlap
     ethr =  1.58E-08,  avg # of iterations =  1.0

     negative rho (up, down):  5.974E-04 1.517E-03

     total cpu time spent up to now is     2175.4 secs

     total energy              =    -734.75998490 Ry
     Harris-Foulkes estimate   =    -734.75998568 Ry
     estimated scf accuracy    <       0.00002789 Ry

     total magnetization       =     1.00 Bohr mag/cell
     absolute magnetization    =     1.06 Bohr mag/cell

     iteration # 22     ecut=    70.00 Ry     beta= 0.70
     Davidson diagonalization with overlap
     ethr =  1.33E-08,  avg # of iterations =  2.0

     negative rho (up, down):  5.974E-04 1.515E-03

     total cpu time spent up to now is     2268.5 secs

     total energy              =    -734.75998510 Ry
     Harris-Foulkes estimate   =    -734.75998562 Ry
     estimated scf accuracy    <       0.00000853 Ry

     total magnetization       =     1.00 Bohr mag/cell
     absolute magnetization    =     1.06 Bohr mag/cell

     iteration # 23     ecut=    70.00 Ry     beta= 0.70
     Davidson diagonalization with overlap
     ethr =  4.08E-09,  avg # of iterations =  2.5

     negative rho (up, down):  5.979E-04 1.500E-03

     total cpu time spent up to now is     2363.4 secs

     total energy              =    -734.75998562 Ry
     Harris-Foulkes estimate   =    -734.75998577 Ry
     estimated scf accuracy    <       0.00000187 Ry

     total magnetization       =     1.00 Bohr mag/cell
     absolute magnetization    =     1.06 Bohr mag/cell

     iteration # 24     ecut=    70.00 Ry     beta= 0.70
     Davidson diagonalization with overlap
     ethr =  8.93E-10,  avg # of iterations =  2.5

     negative rho (up, down):  5.979E-04 1.498E-03

     total cpu time spent up to now is     2463.1 secs

     total energy              =    -734.75998586 Ry
     Harris-Foulkes estimate   =    -734.75998598 Ry
     estimated scf accuracy    <       0.00000246 Ry

     total magnetization       =     1.00 Bohr mag/cell
     absolute magnetization    =     1.06 Bohr mag/cell

     iteration # 25     ecut=    70.00 Ry     beta= 0.70
     Davidson diagonalization with overlap
     ethr =  8.93E-10,  avg # of iterations =  1.0

     negative rho (up, down):  5.979E-04 1.500E-03

     total cpu time spent up to now is     2555.7 secs

     total energy              =    -734.75998564 Ry
     Harris-Foulkes estimate   =    -734.75998599 Ry
     estimated scf accuracy    <       0.00000528 Ry

     total magnetization       =     1.00 Bohr mag/cell
     absolute magnetization    =     1.06 Bohr mag/cell

     iteration # 26     ecut=    70.00 Ry     beta= 0.70
     Davidson diagonalization with overlap
     ethr =  8.93E-10,  avg # of iterations =  2.5

     negative rho (up, down):  5.979E-04 1.500E-03

     total cpu time spent up to now is     2655.8 secs

     total energy              =    -734.75998593 Ry
     Harris-Foulkes estimate   =    -734.75998599 Ry
     estimated scf accuracy    <       0.00000227 Ry

     total magnetization       =     1.00 Bohr mag/cell
     absolute magnetization    =     1.06 Bohr mag/cell

     iteration # 27     ecut=    70.00 Ry     beta= 0.70
     Davidson diagonalization with overlap
     ethr =  8.93E-10,  avg # of iterations =  1.0

     negative rho (up, down):  5.979E-04 1.502E-03

     total cpu time spent up to now is     2748.6 secs

     total energy              =    -734.75998585 Ry
     Harris-Foulkes estimate   =    -734.75998598 Ry
     estimated scf accuracy    <       0.00000107 Ry

     total magnetization       =     1.00 Bohr mag/cell
     absolute magnetization    =     1.06 Bohr mag/cell

     iteration # 28     ecut=    70.00 Ry     beta= 0.70
     Davidson diagonalization with overlap
     ethr =  5.12E-10,  avg # of iterations =  2.5

     negative rho (up, down):  5.980E-04 1.502E-03

     total cpu time spent up to now is     2844.5 secs

     total energy              =    -734.75998598 Ry
     Harris-Foulkes estimate   =    -734.75998596 Ry
     estimated scf accuracy    <       0.00000116 Ry

     total magnetization       =     1.00 Bohr mag/cell
     absolute magnetization    =     1.07 Bohr mag/cell

     iteration # 29     ecut=    70.00 Ry     beta= 0.70
     Davidson diagonalization with overlap
     ethr =  5.12E-10,  avg # of iterations =  1.0

     negative rho (up, down):  5.980E-04 1.503E-03

     total cpu time spent up to now is     2937.0 secs

     total energy              =    -734.75998594 Ry
     Harris-Foulkes estimate   =    -734.75998600 Ry
     estimated scf accuracy    <       0.00000108 Ry

     total magnetization       =     1.00 Bohr mag/cell
     absolute magnetization    =     1.07 Bohr mag/cell

     iteration # 30     ecut=    70.00 Ry     beta= 0.70
     Davidson diagonalization with overlap
     ethr =  5.12E-10,  avg # of iterations =  1.5

     negative rho (up, down):  5.979E-04 1.502E-03

     Magnetic moment per site:
     atom:    1    charge:    0.2111    magn:   -0.0000    constr:    0.0000
     atom:    2    charge:    0.2110    magn:   -0.0000    constr:    0.0000
     atom:    3    charge:    1.7158    magn:    0.0016    constr:    0.0000
     atom:    4    charge:    1.7153    magn:    0.0017    constr:    0.0000
     atom:    5    charge:    1.7170    magn:    0.0000    constr:    0.0000
     atom:    6    charge:    1.7146    magn:   -0.0001    constr:    0.0000
     atom:    7    charge:    1.7170    magn:    0.0000    constr:    0.0000
     atom:    8    charge:    1.7153    magn:    0.0017    constr:    0.0000
     atom:    9    charge:    1.7158    magn:    0.0016    constr:    0.0000
     atom:   10    charge:    1.7171    magn:   -0.0009    constr:    0.0000
     atom:   11    charge:    1.7160    magn:    0.0006    constr:    0.0000
     atom:   12    charge:    1.7171    magn:   -0.0009    constr:    0.0000
     atom:   13    charge:    1.7160    magn:    0.0006    constr:    0.0000
     atom:   14    charge:    1.7169    magn:   -0.0010    constr:    0.0000
     atom:   15    charge:    1.7130    magn:    0.0072    constr:    0.0000
     atom:   16    charge:    1.7108    magn:    0.0131    constr:    0.0000
     atom:   17    charge:    1.7214    magn:    0.0031    constr:    0.0000
     atom:   18    charge:    1.7108    magn:    0.0131    constr:    0.0000
     atom:   19    charge:    1.7130    magn:    0.0073    constr:    0.0000
     atom:   20    charge:    1.7169    magn:   -0.0010    constr:    0.0000
     atom:   21    charge:    1.7160    magn:    0.0006    constr:    0.0000
     atom:   22    charge:    1.7171    magn:   -0.0009    constr:    0.0000
     atom:   23    charge:    1.7158    magn:    0.0016    constr:    0.0000
     atom:   24    charge:    1.7153    magn:    0.0017    constr:    0.0000
     atom:   25    charge:    1.7129    magn:    0.0072    constr:    0.0000
     atom:   26    charge:    1.7107    magn:    0.0133    constr:    0.0000
     atom:   27    charge:    1.8171    magn:    0.0793    constr:    0.0000
     atom:   28    charge:    7.0284    magn:    0.1548    constr:    0.0000
     atom:   29    charge:    1.8174    magn:    0.0802    constr:    0.0000
     atom:   30    charge:    1.7107    magn:    0.0131    constr:    0.0000
     atom:   31    charge:    1.7130    magn:    0.0073    constr:    0.0000
     atom:   32    charge:    1.7153    magn:    0.0017    constr:    0.0000
     atom:   33    charge:    1.7170    magn:    0.0000    constr:    0.0000
     atom:   34    charge:    1.7153    magn:    0.0000    constr:    0.0000
     atom:   35    charge:    1.7170    magn:    0.0000    constr:    0.0000
     atom:   36    charge:    1.7146    magn:   -0.0001    constr:    0.0000
     atom:   37    charge:    1.7213    magn:    0.0030    constr:    0.0000
     atom:   38    charge:    1.7108    magn:    0.0133    constr:    0.0000
     atom:   39    charge:    1.8174    magn:    0.0792    constr:    0.0000
     atom:   40    charge:    1.7107    magn:    0.0131    constr:    0.0000
     atom:   41    charge:    1.7214    magn:    0.0030    constr:    0.0000
     atom:   42    charge:    1.7146    magn:   -0.0001    constr:    0.0000
     atom:   43    charge:    1.7170    magn:    0.0000    constr:    0.0000
     atom:   44    charge:    1.7153    magn:    0.0000    constr:    0.0000
     atom:   45    charge:    1.7211    magn:   -0.0007    constr:    0.0000
     atom:   46    charge:    1.7153    magn:    0.0000    constr:    0.0000
     atom:   47    charge:    1.7170    magn:    0.0000    constr:    0.0000
     atom:   48    charge:    1.7153    magn:    0.0018    constr:    0.0000
     atom:   49    charge:    1.7130    magn:    0.0072    constr:    0.0000
     atom:   50    charge:    1.7169    magn:   -0.0010    constr:    0.0000
     atom:   51    charge:    1.7130    magn:    0.0072    constr:    0.0000
     atom:   52    charge:    1.7153    magn:    0.0017    constr:    0.0000

     total cpu time spent up to now is     3030.9 secs

     End of self-consistent calculation

 ------ SPIN UP ------------


          k = 0.0000 0.0000 0.0000 ( 87777 PWs)   bands (ev):

   -19.8389 -18.9967 -18.9959 -18.9023 -18.9019 -18.8404 -18.7623 -17.1671
   -17.1667 -17.1302 -17.0859 -17.0855 -16.8078 -16.3265 -16.3261 -16.1810
   -16.1807 -16.1589 -15.7666 -14.4224 -14.4218 -14.1274 -14.0328 -14.0326
   -13.5748 -13.1648 -13.1648 -13.0782 -12.9354 -12.9352 -12.6300 -12.3141
   -12.3137 -11.7125 -11.6066 -11.6064 -11.1846 -10.9353 -10.9349  -9.5219
    -9.3622  -9.3621  -9.2415  -9.2317  -9.2317  -9.2224  -9.1033  -9.1025
    -9.0586  -9.0585  -8.9576  -8.7152  -8.7150  -7.9573  -7.8944  -7.8369
    -7.6617  -7.6615  -7.5325  -7.5324  -6.9438  -6.8411  -6.8401  -6.8154
    -6.7992  -6.7604  -6.7137  -6.7124  -6.6165  -6.6164  -6.5726  -6.5662
    -6.5659  -6.5314  -6.5200  -6.3958  -6.3956  -5.6114  -5.6113  -5.0267
    -5.0024  -4.9550  -4.8838  -4.8835  -4.7608  -4.7239  -4.7235  -4.5391
    -4.5390  -4.4660  -3.8501  -3.8497  -3.8165  -3.8163  -3.7813  -3.6372
    -3.6371  -3.4023  -1.8810  -1.8254  -1.8251  -1.7307  -1.7303  -1.2185
    -0.8327  -0.8326   0.9133   0.9492   0.9496   1.0970   1.0971   1.5002
     2.4862   2.7952   2.7957   2.8401   2.9329   2.9338   3.3736   3.4396
     3.5993   3.7239   3.7299   3.7504   3.9120   4.1953

     occupation numbers 
     1.0000   1.0000   1.0000   1.0000   1.0000   1.0000   1.0000   1.0000
     1.0000   1.0000   1.0000   1.0000   1.0000   1.0000   1.0000   1.0000
     1.0000   1.0000   1.0000   1.0000   1.0000   1.0000   1.0000   1.0000
     1.0000   1.0000   1.0000   1.0000   1.0000   1.0000   1.0000   1.0000
     1.0000   1.0000   1.0000   1.0000   1.0000   1.0000   1.0000   1.0000
     1.0000   1.0000   1.0000   1.0000   1.0000   1.0000   1.0000   1.0000
     1.0000   1.0000   1.0000   1.0000   1.0000   1.0000   1.0000   1.0000
     1.0000   1.0000   1.0000   1.0000   1.0000   1.0000   1.0000   1.0000
     1.0000   1.0000   1.0000   1.0000   1.0000   1.0000   1.0000   1.0000
     1.0000   1.0000   1.0000   1.0000   1.0000   1.0000   1.0000   1.0000
     1.0000   1.0000   1.0000   1.0000   1.0000   1.0000   1.0000   1.0000
     1.0000   1.0000   1.0000   1.0000   1.0000   1.0000   1.0000   1.0000
     1.0000   1.0000   1.0000   1.0000   1.0000   1.0000   1.0000   1.0000
     0.5040   0.4960   0.0000   0.0000   0.0000   0.0000   0.0000   0.0000
     0.0000   0.0000   0.0000   0.0000   0.0000   0.0000   0.0000   0.0000
     0.0000   0.0000   0.0000   0.0000   0.0000   0.0000

 ------ SPIN DOWN ----------


          k = 0.0000 0.0000 0.0000 ( 87777 PWs)   bands (ev):

   -19.8139 -18.9642 -18.9634 -18.8954 -18.8951 -18.8375 -18.6868 -17.1277
   -17.1273 -17.1142 -17.0641 -17.0635 -16.7743 -16.2892 -16.2887 -16.1594
   -16.1590 -16.1520 -15.6909 -14.3323 -14.3319 -14.1032 -14.0247 -14.0245
   -13.5325 -13.1394 -13.1393 -13.0652 -12.8989 -12.8984 -12.5653 -12.2030
   -12.2026 -11.6928 -11.5721 -11.5717 -11.0792 -10.8049 -10.8046  -9.4811
    -9.3428  -9.3426  -9.2339  -9.2230  -9.2230  -9.2101  -9.0022  -9.0021
    -8.9320  -8.9302  -8.8326  -8.6737  -8.6734  -7.9470  -7.8702  -7.8150
    -7.6127  -7.6126  -7.5150  -7.5148  -6.8958  -6.8399  -6.8390  -6.7924
    -6.7748  -6.7412  -6.6994  -6.6984  -6.5946  -6.5944  -6.5649  -6.5622
    -6.5619  -6.5197  -6.5139  -6.3548  -6.3547  -5.5839  -5.5837  -5.0077
    -4.9451  -4.8638  -4.8636  -4.7890  -4.7560  -4.7228  -4.7224  -4.5294
    -4.5293  -4.4499  -3.8460  -3.8457  -3.7910  -3.7908  -3.7821  -3.6188
    -3.6188  -3.3641  -1.8772  -1.8233  -1.8230  -1.7087  -1.7083  -1.1821
    -0.4330  -0.4285   0.9164   0.9526   0.9529   1.1202   1.1203   1.5124
     2.4869   2.7974   2.7978   2.8411   2.9603   2.9610   3.3780   3.4468
     3.6005   3.7233   3.7291   3.7492   3.9196   4.1985

     occupation numbers 
     1.0000   1.0000   1.0000   1.0000   1.0000   1.0000   1.0000   1.0000
     1.0000   1.0000   1.0000   1.0000   1.0000   1.0000   1.0000   1.0000
     1.0000   1.0000   1.0000   1.0000   1.0000   1.0000   1.0000   1.0000
     1.0000   1.0000   1.0000   1.0000   1.0000   1.0000   1.0000   1.0000
     1.0000   1.0000   1.0000   1.0000   1.0000   1.0000   1.0000   1.0000
     1.0000   1.0000   1.0000   1.0000   1.0000   1.0000   1.0000   1.0000
     1.0000   1.0000   1.0000   1.0000   1.0000   1.0000   1.0000   1.0000
     1.0000   1.0000   1.0000   1.0000   1.0000   1.0000   1.0000   1.0000
     1.0000   1.0000   1.0000   1.0000   1.0000   1.0000   1.0000   1.0000
     1.0000   1.0000   1.0000   1.0000   1.0000   1.0000   1.0000   1.0000
     1.0000   1.0000   1.0000   1.0000   1.0000   1.0000   1.0000   1.0000
     1.0000   1.0000   1.0000   1.0000   1.0000   1.0000   1.0000   1.0000
     1.0000   1.0000   1.0000   1.0000   1.0000   1.0000   1.0000   1.0000
     0.0000   0.0000   0.0000   0.0000   0.0000   0.0000   0.0000   0.0000
     0.0000   0.0000   0.0000   0.0000   0.0000   0.0000   0.0000   0.0000
     0.0000   0.0000   0.0000   0.0000   0.0000   0.0000

     the Fermi energy is    -0.8308 ev

!    total energy              =    -734.75998584 Ry
     Harris-Foulkes estimate   =    -734.75998599 Ry
     estimated scf accuracy    <       0.00000031 Ry

     The total energy is the sum of the following terms:

     one-electron contribution =   -2484.12734745 Ry
     hartree contribution      =    1297.81195053 Ry
     xc contribution           =    -275.92226435 Ry
     ewald contribution        =     727.47800359 Ry
     smearing contrib. (-TS)   =      -0.00032816 Ry

     total magnetization       =     1.00 Bohr mag/cell
     absolute magnetization    =     1.07 Bohr mag/cell

     convergence has been achieved in  30 iterations

     Writing output data file cobre-baricentro-distance-3.5.save/

     init_run     :     73.04s CPU     74.79s WALL (       1 calls)
     electrons    :   2902.12s CPU   2955.17s WALL (       1 calls)

     Called by init_run:
     wfcinit      :     42.52s CPU     42.84s WALL (       1 calls)
     wfcinit:atom :      0.05s CPU      0.09s WALL (       2 calls)
     wfcinit:wfcr :     42.13s CPU     42.35s WALL (       2 calls)
     potinit      :     12.80s CPU     13.28s WALL (       1 calls)
     hinit0       :      9.36s CPU      9.39s WALL (       1 calls)

     Called by electrons:
     c_bands      :   1804.45s CPU   1814.34s WALL (      30 calls)
     sum_band     :    635.49s CPU    652.70s WALL (      30 calls)
     v_of_rho     :    227.24s CPU    237.32s WALL (      31 calls)
     v_h          :      2.40s CPU      2.46s WALL (      31 calls)
     v_xc         :    224.84s CPU    234.86s WALL (      31 calls)
     newd         :    228.11s CPU    244.93s WALL (      31 calls)
     mix_rho      :     13.87s CPU     14.07s WALL (      30 calls)

     Called by c_bands:
     init_us_2    :      5.78s CPU      5.82s WALL (     122 calls)
     cegterg      :   1789.87s CPU   1799.67s WALL (      60 calls)

     Called by sum_band:
     sum_band:bec :      0.05s CPU      0.05s WALL (      60 calls)
     addusdens    :    394.02s CPU    409.75s WALL (      30 calls)

     Called by *egterg:
     h_psi        :    960.83s CPU    967.72s WALL (     202 calls)
     s_psi        :    321.84s CPU    321.98s WALL (     202 calls)
     g_psi        :      0.96s CPU      0.97s WALL (     140 calls)
     cdiaghg      :     12.11s CPU     12.12s WALL (     200 calls)
     cegterg:over :    212.33s CPU    212.50s WALL (     140 calls)
     cegterg:upda :    120.15s CPU    120.97s WALL (     140 calls)
     cegterg:last :     95.52s CPU     95.56s WALL (      60 calls)

     Called by h_psi:
     h_psi:pot    :    959.67s CPU    965.49s WALL (     202 calls)
     h_psi:calbec :    323.57s CPU    323.73s WALL (     202 calls)
     vloc_psi     :    314.59s CPU    320.10s WALL (     202 calls)
     add_vuspsi   :    321.51s CPU    321.65s WALL (     202 calls)

     General routines
     calbec       :    469.75s CPU    470.04s WALL (     262 calls)
     fft          :    135.33s CPU    139.45s WALL (    2319 calls)
     ffts         :      2.37s CPU      2.40s WALL (     122 calls)
     fftw         :    338.38s CPU    344.45s WALL (   41128 calls)
     interpolate  :      5.55s CPU      5.65s WALL (      62 calls)

     Parallel routines
     fft_scatt_xy :     85.53s CPU     86.63s WALL (   43569 calls)
     fft_scatt_yz :    163.97s CPU    171.55s WALL (   43569 calls)

     PWSCF        :  49m36.53s CPU  50m31.59s WALL


   This run was terminated on:  10:14:56   8Sep2022            

=------------------------------------------------------------------------------=
   JOB DONE.
=------------------------------------------------------------------------------=
