
     Program PWSCF v.6.4.1 starts on  8Sep2022 at  7: 3:30 

     This program is part of the open-source Quantum ESPRESSO suite
     for quantum simulation of materials; please cite
         "P. Giannozzi et al., J. Phys.:Condens. Matter 21 395502 (2009);
         "P. Giannozzi et al., J. Phys.:Condens. Matter 29 465901 (2017);
          URL http://www.quantum-espresso.org", 
     in publications or presentations arising from this work. More details at
     http://www.quantum-espresso.org/quote

     Parallel version (MPI), running on     6 processors

     MPI processes distributed on     1 nodes
     R & G space division:  proc/nbgrp/npool/nimage =       6
     Reading input from distance-5.0.in

     Current dimensions of program PWSCF are:
     Max number of different atomic species (ntypx) = 10
     Max number of k-points (npk) =  40000
     Max angular momentum in pseudopotentials (lmaxx) =  3

     IMPORTANT: XC functional enforced from input :
     Exchange-correlation      = RVV10 ( 1  4 13  4 3 0)
     Any further DFT definition will be discarded
     Please, verify this is what you really want

               file H.pbe-rrkjus.UPF: wavefunction(s)  1S renormalized
               file Cu.pbe-dn-rrkjus_psl.1.0.0.UPF: wavefunction(s)  3D renormalized

     Subspace diagonalization in iterative solution of the eigenvalue problem:
     a serial algorithm will be used


     Parallelization info
     --------------------
     sticks:   dense  smooth     PW     G-vecs:    dense   smooth      PW
     Min        3051    1746    432               270999   117096   14629
     Max        3053    1747    437               271001   117099   14630
     Sum       18313   10477   2611              1626001   702581   87777



     bravais-lattice index     =            4
     lattice parameter (alat)  =      23.2937  a.u.
     unit-cell volume          =    8879.8548 (a.u.)^3
     number of atoms/cell      =           52
     number of atomic types    =            3
     number of electrons       =       209.00
     number of Kohn-Sham states=          126
     kinetic-energy cutoff     =      70.0000  Ry
     charge density cutoff     =     490.0000  Ry
     convergence threshold     =      1.0E-06
     mixing beta               =       0.7000
     number of iterations used =            8  plain     mixing
     Exchange-correlation      = RVV10 ( 1  4 13  4 3 0)

     celldm(1)=  23.293684  celldm(2)=   0.000000  celldm(3)=   0.811261
     celldm(4)=   0.000000  celldm(5)=   0.000000  celldm(6)=   0.000000

     crystal axes: (cart. coord. in units of alat)
               a(1) = (   1.000000   0.000000   0.000000 )  
               a(2) = (  -0.500000   0.866025   0.000000 )  
               a(3) = (   0.000000   0.000000   0.811261 )  

     reciprocal axes: (cart. coord. in units 2 pi/alat)
               b(1) = (  1.000000  0.577350 -0.000000 )  
               b(2) = (  0.000000  1.154701  0.000000 )  
               b(3) = (  0.000000 -0.000000  1.232649 )  


     PseudoPot. # 1 for H  read from file:
     /home/cristian/Escritorio/Proyecto_Grafeno/pseudopotenciales/H.pbe-rrkjus.UPF
     MD5 check sum: 7cc9d459525c9a0585f487a71c3c9563
     Pseudo is Ultrasoft, Zval =  1.0
     Generated by new atomic code, or converted to UPF format
     Using radial grid of 1061 points,  2 beta functions with: 
                l(1) =   0
                l(2) =   0
     Q(r) pseudized with 0 coefficients 


     PseudoPot. # 2 for C  read from file:
     /home/cristian/Escritorio/Proyecto_Grafeno/pseudopotenciales/C.pbe-n-rrkjus_psl.1.0.0.UPF
     MD5 check sum: 1fdd950c42eb37d8afe3dd2f8d12311e
     Pseudo is Ultrasoft + core correction, Zval =  4.0
     Generated using "atomic" code by A. Dal Corso v.6.3MaX
     Using radial grid of 1073 points,  4 beta functions with: 
                l(1) =   0
                l(2) =   0
                l(3) =   1
                l(4) =   1
     Q(r) pseudized with 0 coefficients 


     PseudoPot. # 3 for Cu read from file:
     /home/cristian/Escritorio/Proyecto_Grafeno/pseudopotenciales/Cu.pbe-dn-rrkjus_psl.1.0.0.UPF
     MD5 check sum: ba3d6c84e19846e79d48cdc68ff7152b
     Pseudo is Ultrasoft + core correction, Zval = 11.0
     Generated using "atomic" code by A. Dal Corso v.6.3
     Using radial grid of 1199 points,  6 beta functions with: 
                l(1) =   0
                l(2) =   0
                l(3) =   1
                l(4) =   1
                l(5) =   2
                l(6) =   2
     Q(r) pseudized with 0 coefficients 


     vdW kernel table read from file rVV10_kernel_table
     MD5 check sum: b8e2538accc0c0b3206b45ba4daaba6c

     atomic species   valence    mass     pseudopotential
        H              1.00     1.00794     H ( 1.00)
        C              4.00    12.01070     C ( 1.00)
        Cu            11.00    63.54600     Cu( 1.00)

     Starting magnetic structure 
     atomic species   magnetization
        H            0.500
        C            0.300
        Cu           0.800

      2 Sym. Ops. (no inversion) found


                                    s                        frac. trans.

      isym =  1     identity                                     

 cryst.   s( 1) = (     1          0          0      )
                  (     0          1          0      )
                  (     0          0          1      )

 cart.    s( 1) = (  1.0000000  0.0000000  0.0000000 )
                  (  0.0000000  1.0000000  0.0000000 )
                  (  0.0000000  0.0000000  1.0000000 )


      isym =  2     inv. 180 deg rotation - cart. axis [0,0,1]   

 cryst.   s( 2) = (     1          0          0      )
                  (     0          1          0      )
                  (     0          0         -1      )

 cart.    s( 2) = (  1.0000000  0.0000000  0.0000000 )
                  (  0.0000000  1.0000000  0.0000000 )
                  (  0.0000000  0.0000000 -1.0000000 )


     point group C_s (m)    
     there are  2 classes
     the character table:

       E     s    
A'     1.00  1.00
A''    1.00 -1.00

     the symmetry operations in each class and the name of the first element:

     E        1
          identity                                               
     s        2
          inv. 180 deg rotation - cart. axis [0,0,1]             

   Cartesian axes

     site n.     atom                  positions (alat units)
         1           H   tau(   1) = (   0.2361603   0.4618802   0.4056306  )
         2           H   tau(   2) = (   0.2971730   0.4618802   0.4056306  )
         3           C   tau(   3) = (   0.0000000   0.0000000   0.0000000  )
         4           C   tau(   4) = (   0.0000000   0.1154701   0.0000000  )
         5           C   tau(   5) = (  -0.1000000   0.1732051   0.0000000  )
         6           C   tau(   6) = (  -0.1000000   0.2886751   0.0000000  )
         7           C   tau(   7) = (  -0.2000000   0.3464102   0.0000000  )
         8           C   tau(   8) = (  -0.2000000   0.4618802   0.0000000  )
         9           C   tau(   9) = (  -0.3000000   0.5196152   0.0000000  )
        10           C   tau(  10) = (  -0.3000000   0.6350853   0.0000000  )
        11           C   tau(  11) = (  -0.4000000   0.6928203   0.0000000  )
        12           C   tau(  12) = (  -0.4000000   0.8082904   0.0000000  )
        13           C   tau(  13) = (   0.2000000   0.0000000   0.0000000  )
        14           C   tau(  14) = (   0.2000000   0.1154701   0.0000000  )
        15           C   tau(  15) = (   0.1000000   0.1732051   0.0000000  )
        16           C   tau(  16) = (   0.1000000   0.2886751   0.0000000  )
        17           C   tau(  17) = (   0.0000000   0.3464102   0.0000000  )
        18           C   tau(  18) = (   0.0000000   0.4618802   0.0000000  )
        19           C   tau(  19) = (  -0.1000000   0.5196152   0.0000000  )
        20           C   tau(  20) = (  -0.1000000   0.6350853   0.0000000  )
        21           C   tau(  21) = (  -0.2000000   0.6928203   0.0000000  )
        22           C   tau(  22) = (  -0.2000000   0.8082904   0.0000000  )
        23           C   tau(  23) = (   0.4000000   0.0000000   0.0000000  )
        24           C   tau(  24) = (   0.4000000   0.1154701   0.0000000  )
        25           C   tau(  25) = (   0.3000000   0.1732051   0.0000000  )
        26           C   tau(  26) = (   0.3000000   0.2886751   0.0000000  )
        27           C   tau(  27) = (   0.2000000   0.3464102   0.0000000  )
        28           Cu  tau(  28) = (   0.2000000   0.4618802   0.0000000  )
        29           C   tau(  29) = (   0.1000000   0.5196152   0.0000000  )
        30           C   tau(  30) = (   0.1000000   0.6350853   0.0000000  )
        31           C   tau(  31) = (   0.0000000   0.6928203   0.0000000  )
        32           C   tau(  32) = (   0.0000000   0.8082904   0.0000000  )
        33           C   tau(  33) = (   0.6000000   0.0000000   0.0000000  )
        34           C   tau(  34) = (   0.6000000   0.1154701   0.0000000  )
        35           C   tau(  35) = (   0.5000000   0.1732051   0.0000000  )
        36           C   tau(  36) = (   0.5000000   0.2886751   0.0000000  )
        37           C   tau(  37) = (   0.4000000   0.3464102   0.0000000  )
        38           C   tau(  38) = (   0.4000000   0.4618802   0.0000000  )
        39           C   tau(  39) = (   0.3000000   0.5196152   0.0000000  )
        40           C   tau(  40) = (   0.3000000   0.6350853   0.0000000  )
        41           C   tau(  41) = (   0.2000000   0.6928203   0.0000000  )
        42           C   tau(  42) = (   0.2000000   0.8082904   0.0000000  )
        43           C   tau(  43) = (   0.8000000   0.0000000   0.0000000  )
        44           C   tau(  44) = (   0.8000000   0.1154701   0.0000000  )
        45           C   tau(  45) = (   0.7000000   0.1732051   0.0000000  )
        46           C   tau(  46) = (   0.7000000   0.2886751   0.0000000  )
        47           C   tau(  47) = (   0.6000000   0.3464102   0.0000000  )
        48           C   tau(  48) = (   0.6000000   0.4618802   0.0000000  )
        49           C   tau(  49) = (   0.5000000   0.5196152   0.0000000  )
        50           C   tau(  50) = (   0.5000000   0.6350853   0.0000000  )
        51           C   tau(  51) = (   0.4000000   0.6928203   0.0000000  )
        52           C   tau(  52) = (   0.4000000   0.8082904   0.0000000  )

   Crystallographic axes

     site n.     atom                  positions (cryst. coord.)
         1           H   tau(   1) = (  0.5028270  0.5333333  0.5000000  )
         2           H   tau(   2) = (  0.5638397  0.5333333  0.5000000  )
         3           C   tau(   3) = (  0.0000000  0.0000000  0.0000000  )
         4           C   tau(   4) = (  0.0666667  0.1333333  0.0000000  )
         5           C   tau(   5) = (  0.0000000  0.2000000  0.0000000  )
         6           C   tau(   6) = (  0.0666667  0.3333333  0.0000000  )
         7           C   tau(   7) = (  0.0000000  0.4000000  0.0000000  )
         8           C   tau(   8) = (  0.0666667  0.5333333  0.0000000  )
         9           C   tau(   9) = (  0.0000000  0.6000000  0.0000000  )
        10           C   tau(  10) = (  0.0666667  0.7333333  0.0000000  )
        11           C   tau(  11) = (  0.0000000  0.8000000  0.0000000  )
        12           C   tau(  12) = (  0.0666667  0.9333333  0.0000000  )
        13           C   tau(  13) = (  0.2000000  0.0000000  0.0000000  )
        14           C   tau(  14) = (  0.2666667  0.1333333  0.0000000  )
        15           C   tau(  15) = (  0.2000000  0.2000000  0.0000000  )
        16           C   tau(  16) = (  0.2666667  0.3333333  0.0000000  )
        17           C   tau(  17) = (  0.2000000  0.4000000  0.0000000  )
        18           C   tau(  18) = (  0.2666667  0.5333333  0.0000000  )
        19           C   tau(  19) = (  0.2000000  0.6000000  0.0000000  )
        20           C   tau(  20) = (  0.2666667  0.7333333  0.0000000  )
        21           C   tau(  21) = (  0.2000000  0.8000000  0.0000000  )
        22           C   tau(  22) = (  0.2666667  0.9333333  0.0000000  )
        23           C   tau(  23) = (  0.4000000  0.0000000  0.0000000  )
        24           C   tau(  24) = (  0.4666667  0.1333333  0.0000000  )
        25           C   tau(  25) = (  0.4000000  0.2000000  0.0000000  )
        26           C   tau(  26) = (  0.4666667  0.3333333  0.0000000  )
        27           C   tau(  27) = (  0.4000000  0.4000000  0.0000000  )
        28           Cu  tau(  28) = (  0.4666667  0.5333333  0.0000000  )
        29           C   tau(  29) = (  0.4000000  0.6000000  0.0000000  )
        30           C   tau(  30) = (  0.4666667  0.7333333  0.0000000  )
        31           C   tau(  31) = (  0.4000000  0.8000000  0.0000000  )
        32           C   tau(  32) = (  0.4666667  0.9333333  0.0000000  )
        33           C   tau(  33) = (  0.6000000  0.0000000  0.0000000  )
        34           C   tau(  34) = (  0.6666667  0.1333333  0.0000000  )
        35           C   tau(  35) = (  0.6000000  0.2000000  0.0000000  )
        36           C   tau(  36) = (  0.6666667  0.3333333  0.0000000  )
        37           C   tau(  37) = (  0.6000000  0.4000000  0.0000000  )
        38           C   tau(  38) = (  0.6666667  0.5333333  0.0000000  )
        39           C   tau(  39) = (  0.6000000  0.6000000  0.0000000  )
        40           C   tau(  40) = (  0.6666667  0.7333333  0.0000000  )
        41           C   tau(  41) = (  0.6000000  0.8000000  0.0000000  )
        42           C   tau(  42) = (  0.6666667  0.9333333  0.0000000  )
        43           C   tau(  43) = (  0.8000000  0.0000000  0.0000000  )
        44           C   tau(  44) = (  0.8666667  0.1333333  0.0000000  )
        45           C   tau(  45) = (  0.8000000  0.2000000  0.0000000  )
        46           C   tau(  46) = (  0.8666667  0.3333333  0.0000000  )
        47           C   tau(  47) = (  0.8000000  0.4000000  0.0000000  )
        48           C   tau(  48) = (  0.8666667  0.5333333  0.0000000  )
        49           C   tau(  49) = (  0.8000000  0.6000000  0.0000000  )
        50           C   tau(  50) = (  0.8666667  0.7333333  0.0000000  )
        51           C   tau(  51) = (  0.8000000  0.8000000  0.0000000  )
        52           C   tau(  52) = (  0.8666667  0.9333333  0.0000000  )

     number of k points=     1  Marzari-Vanderbilt smearing, width (Ry)=  0.0010
                       cart. coord. in units 2pi/alat
        k(    1) = (   0.0000000   0.0000000   0.0000000), wk =   1.0000000

                       cryst. coord.
        k(    1) = (   0.0000000   0.0000000   0.0000000), wk =   1.0000000

     Dense  grid:  1626001 G-vectors     FFT dimensions: ( 180, 180, 135)

     Smooth grid:   702581 G-vectors     FFT dimensions: ( 125, 125, 108)

     Dynamical RAM for                 wfc:      28.14 MB

     Dynamical RAM for     wfc (w. buffer):      84.42 MB

     Dynamical RAM for           str. fact:      12.41 MB

     Dynamical RAM for           local pot:       0.00 MB

     Dynamical RAM for          nlocal pot:      92.46 MB

     Dynamical RAM for                qrad:      19.73 MB

     Dynamical RAM for          rho,v,vnew:      58.92 MB

     Dynamical RAM for               rhoin:      19.64 MB

     Dynamical RAM for            rho*nmix:     132.32 MB

     Dynamical RAM for           G-vectors:      16.40 MB

     Dynamical RAM for          h,s,v(r/c):      11.63 MB

     Dynamical RAM for          <psi|beta>:       0.80 MB

     Dynamical RAM for                 psi:     112.56 MB

     Dynamical RAM for                hpsi:     112.56 MB

     Dynamical RAM for                spsi:     112.56 MB

     Dynamical RAM for      wfcinit/wfcrot:      93.45 MB

     Dynamical RAM for           addusdens:     975.89 MB

     Estimated static dynamical RAM per process >     486.96 MB

     Estimated max dynamical RAM per process >       1.43 GB

     Estimated total dynamical RAM >       8.57 GB
     Generating pointlists ...
     new r_m :   0.0252 (alat units)  0.5862 (a.u.) for type    1
     new r_m :   0.0476 (alat units)  1.1095 (a.u.) for type    2
     new r_m :   0.0476 (alat units)  1.1095 (a.u.) for type    3

     Check: negative core charge=   -0.000002

     Initial potential from superposition of free atoms

     starting charge  208.80532, renormalised to  209.00000

     negative rho (up, down):  5.358E-05 7.763E-03


---------------------------------------------------------------------------------
Carrying out rVV10 run using the following parameters:
Nqs =      20    Nr_points =    1024   r_max =   100.000
b_value =  6.30000    beta =  0.00901
     q_mesh =  0.00010000  0.00030000  0.00058939  0.00100810
               0.00161396  0.00249058  0.00375900  0.00559430
               0.00824984  0.01209221  0.01765183  0.02569619
               0.03733578  0.05417739  0.07854596  0.11380545
               0.16482331  0.23864234  0.34545298  0.50000000

Gradients computed in Reciprocal space

---------------------------------------------------------------------------------


     Starting wfcs are  207 randomized atomic wfcs

     total cpu time spent up to now is       75.2 secs

     Self-consistent Calculation

     iteration #  1     ecut=    70.00 Ry     beta= 0.70
     Davidson diagonalization with overlap
     ethr =  1.00E-02,  avg # of iterations =  3.0

     negative rho (up, down):  1.078E-04 8.136E-03

     total cpu time spent up to now is      204.2 secs

     total energy              =    -726.87331224 Ry
     Harris-Foulkes estimate   =    -734.97330496 Ry
     estimated scf accuracy    <      14.87021676 Ry

     total magnetization       =     7.00 Bohr mag/cell
     absolute magnetization    =     7.38 Bohr mag/cell

     iteration #  2     ecut=    70.00 Ry     beta= 0.70
     Davidson diagonalization with overlap
     ethr =  7.11E-03,  avg # of iterations =  4.5

     negative rho (up, down):  1.146E-04 7.204E-03

     total cpu time spent up to now is      329.3 secs

     total energy              =    -727.10690297 Ry
     Harris-Foulkes estimate   =    -745.99442729 Ry
     estimated scf accuracy    <      51.28939638 Ry

     total magnetization       =     1.92 Bohr mag/cell
     absolute magnetization    =     2.28 Bohr mag/cell

     iteration #  3     ecut=    70.00 Ry     beta= 0.70
     Davidson diagonalization with overlap
     ethr =  7.11E-03,  avg # of iterations =  4.0

     negative rho (up, down):  1.374E-04 6.628E-03

     total cpu time spent up to now is      437.9 secs

     total energy              =    -731.94708201 Ry
     Harris-Foulkes estimate   =    -736.48406459 Ry
     estimated scf accuracy    <      13.10053209 Ry

     total magnetization       =     3.00 Bohr mag/cell
     absolute magnetization    =     3.24 Bohr mag/cell

     iteration #  4     ecut=    70.00 Ry     beta= 0.70
     Davidson diagonalization with overlap
     ethr =  6.27E-03,  avg # of iterations =  2.5

     negative rho (up, down):  1.752E-04 7.211E-03

     total cpu time spent up to now is      535.9 secs

     total energy              =    -733.76178182 Ry
     Harris-Foulkes estimate   =    -734.91434547 Ry
     estimated scf accuracy    <       5.01000931 Ry

     total magnetization       =     3.00 Bohr mag/cell
     absolute magnetization    =     3.16 Bohr mag/cell

     iteration #  5     ecut=    70.00 Ry     beta= 0.70
     Davidson diagonalization with overlap
     ethr =  2.40E-03,  avg # of iterations =  3.5

     negative rho (up, down):  2.118E-04 1.007E-02

     total cpu time spent up to now is      632.9 secs

     total energy              =    -734.29765018 Ry
     Harris-Foulkes estimate   =    -735.10308130 Ry
     estimated scf accuracy    <       3.86944532 Ry

     total magnetization       =     1.00 Bohr mag/cell
     absolute magnetization    =     1.46 Bohr mag/cell

     iteration #  6     ecut=    70.00 Ry     beta= 0.70
     Davidson diagonalization with overlap
     ethr =  1.85E-03,  avg # of iterations =  2.0

     negative rho (up, down):  2.880E-04 1.468E-02

     total cpu time spent up to now is      727.8 secs

     total energy              =    -734.70033029 Ry
     Harris-Foulkes estimate   =    -734.76536217 Ry
     estimated scf accuracy    <       0.18395497 Ry

     total magnetization       =     1.00 Bohr mag/cell
     absolute magnetization    =     1.36 Bohr mag/cell

     iteration #  7     ecut=    70.00 Ry     beta= 0.70
     Davidson diagonalization with overlap
     ethr =  8.80E-05,  avg # of iterations =  6.5

     negative rho (up, down):  4.090E-04 1.102E-02

     total cpu time spent up to now is      845.4 secs

     total energy              =    -734.71889536 Ry
     Harris-Foulkes estimate   =    -734.79999390 Ry
     estimated scf accuracy    <       0.28560599 Ry

     total magnetization       =     1.00 Bohr mag/cell
     absolute magnetization    =     1.25 Bohr mag/cell

     iteration #  8     ecut=    70.00 Ry     beta= 0.70
     Davidson diagonalization with overlap
     ethr =  8.80E-05,  avg # of iterations =  3.0

     negative rho (up, down):  4.879E-04 5.122E-03

     total cpu time spent up to now is      944.2 secs

     total energy              =    -734.74776031 Ry
     Harris-Foulkes estimate   =    -734.76441656 Ry
     estimated scf accuracy    <       0.06085803 Ry

     total magnetization       =     1.00 Bohr mag/cell
     absolute magnetization    =     1.21 Bohr mag/cell

     iteration #  9     ecut=    70.00 Ry     beta= 0.70
     Davidson diagonalization with overlap
     ethr =  2.91E-05,  avg # of iterations =  3.0

     negative rho (up, down):  5.383E-04 2.859E-03

     total cpu time spent up to now is     1042.6 secs

     total energy              =    -734.75607805 Ry
     Harris-Foulkes estimate   =    -734.76026889 Ry
     estimated scf accuracy    <       0.04657223 Ry

     total magnetization       =     1.00 Bohr mag/cell
     absolute magnetization    =     1.17 Bohr mag/cell

     iteration # 10     ecut=    70.00 Ry     beta= 0.70
     Davidson diagonalization with overlap
     ethr =  2.23E-05,  avg # of iterations =  1.0

     negative rho (up, down):  5.419E-04 2.588E-03

     total cpu time spent up to now is     1134.7 secs

     total energy              =    -734.75585799 Ry
     Harris-Foulkes estimate   =    -734.75873600 Ry
     estimated scf accuracy    <       0.02330695 Ry

     total magnetization       =     1.00 Bohr mag/cell
     absolute magnetization    =     1.14 Bohr mag/cell

     iteration # 11     ecut=    70.00 Ry     beta= 0.70
     Davidson diagonalization with overlap
     ethr =  1.12E-05,  avg # of iterations =  1.0

     negative rho (up, down):  5.650E-04 2.814E-03

     total cpu time spent up to now is     1226.7 secs

     total energy              =    -734.75689572 Ry
     Harris-Foulkes estimate   =    -734.75924524 Ry
     estimated scf accuracy    <       0.02653208 Ry

     total magnetization       =     1.00 Bohr mag/cell
     absolute magnetization    =     1.14 Bohr mag/cell

     iteration # 12     ecut=    70.00 Ry     beta= 0.70
     Davidson diagonalization with overlap
     ethr =  1.12E-05,  avg # of iterations =  1.0

     negative rho (up, down):  5.671E-04 2.047E-03

     total cpu time spent up to now is     1318.7 secs

     total energy              =    -734.75771409 Ry
     Harris-Foulkes estimate   =    -734.75798080 Ry
     estimated scf accuracy    <       0.00234256 Ry

     total magnetization       =     1.00 Bohr mag/cell
     absolute magnetization    =     1.11 Bohr mag/cell

     iteration # 13     ecut=    70.00 Ry     beta= 0.70
     Davidson diagonalization with overlap
     ethr =  1.12E-06,  avg # of iterations =  7.5

     negative rho (up, down):  5.677E-04 1.839E-03

     total cpu time spent up to now is     1419.4 secs

     total energy              =    -734.75790990 Ry
     Harris-Foulkes estimate   =    -734.75793342 Ry
     estimated scf accuracy    <       0.00026228 Ry

     total magnetization       =     1.00 Bohr mag/cell
     absolute magnetization    =     1.09 Bohr mag/cell

     iteration # 14     ecut=    70.00 Ry     beta= 0.70
     Davidson diagonalization with overlap
     ethr =  1.25E-07,  avg # of iterations =  2.0

     negative rho (up, down):  5.589E-04 1.406E-03

     total cpu time spent up to now is     1514.8 secs

     total energy              =    -734.75794049 Ry
     Harris-Foulkes estimate   =    -734.75794136 Ry
     estimated scf accuracy    <       0.00003315 Ry

     total magnetization       =     1.00 Bohr mag/cell
     absolute magnetization    =     1.08 Bohr mag/cell

     iteration # 15     ecut=    70.00 Ry     beta= 0.70
     Davidson diagonalization with overlap
     ethr =  1.59E-08,  avg # of iterations =  3.0

     negative rho (up, down):  5.596E-04 1.413E-03

     total cpu time spent up to now is     1625.5 secs

     total energy              =    -734.75795005 Ry
     Harris-Foulkes estimate   =    -734.75795480 Ry
     estimated scf accuracy    <       0.00022561 Ry

     total magnetization       =     1.00 Bohr mag/cell
     absolute magnetization    =     1.07 Bohr mag/cell

     iteration # 16     ecut=    70.00 Ry     beta= 0.70
     Davidson diagonalization with overlap
     ethr =  1.59E-08,  avg # of iterations =  1.5

     negative rho (up, down):  5.583E-04 1.410E-03

     total cpu time spent up to now is     1717.5 secs

     total energy              =    -734.75795008 Ry
     Harris-Foulkes estimate   =    -734.75795284 Ry
     estimated scf accuracy    <       0.00012080 Ry

     total magnetization       =     1.00 Bohr mag/cell
     absolute magnetization    =     1.07 Bohr mag/cell

     iteration # 17     ecut=    70.00 Ry     beta= 0.70
     Davidson diagonalization with overlap
     ethr =  1.59E-08,  avg # of iterations =  1.5

     negative rho (up, down):  5.569E-04 1.413E-03

     total cpu time spent up to now is     1810.3 secs

     total energy              =    -734.75795180 Ry
     Harris-Foulkes estimate   =    -734.75795360 Ry
     estimated scf accuracy    <       0.00001162 Ry

     total magnetization       =     1.00 Bohr mag/cell
     absolute magnetization    =     1.07 Bohr mag/cell

     iteration # 18     ecut=    70.00 Ry     beta= 0.70
     Davidson diagonalization with overlap
     ethr =  5.56E-09,  avg # of iterations =  2.0

     negative rho (up, down):  5.568E-04 1.414E-03

     total cpu time spent up to now is     1907.2 secs

     total energy              =    -734.75795551 Ry
     Harris-Foulkes estimate   =    -734.75795549 Ry
     estimated scf accuracy    <       0.00011351 Ry

     total magnetization       =     1.00 Bohr mag/cell
     absolute magnetization    =     1.07 Bohr mag/cell

     iteration # 19     ecut=    70.00 Ry     beta= 0.70
     Davidson diagonalization with overlap
     ethr =  5.56E-09,  avg # of iterations =  2.0

     negative rho (up, down):  5.557E-04 1.402E-03

     total cpu time spent up to now is     2001.4 secs

     total energy              =    -734.75795488 Ry
     Harris-Foulkes estimate   =    -734.75795661 Ry
     estimated scf accuracy    <       0.00013045 Ry

     total magnetization       =     1.00 Bohr mag/cell
     absolute magnetization    =     1.07 Bohr mag/cell

     iteration # 20     ecut=    70.00 Ry     beta= 0.70
     Davidson diagonalization with overlap
     ethr =  5.56E-09,  avg # of iterations =  2.5

     negative rho (up, down):  5.553E-04 1.404E-03

     total cpu time spent up to now is     2098.9 secs

     total energy              =    -734.75795628 Ry
     Harris-Foulkes estimate   =    -734.75795672 Ry
     estimated scf accuracy    <       0.00009373 Ry

     total magnetization       =     1.00 Bohr mag/cell
     absolute magnetization    =     1.07 Bohr mag/cell

     iteration # 21     ecut=    70.00 Ry     beta= 0.70
     Davidson diagonalization with overlap
     ethr =  5.56E-09,  avg # of iterations =  1.5

     negative rho (up, down):  5.549E-04 1.392E-03

     total cpu time spent up to now is     2191.4 secs

     total energy              =    -734.75795617 Ry
     Harris-Foulkes estimate   =    -734.75795670 Ry
     estimated scf accuracy    <       0.00005732 Ry

     total magnetization       =     1.00 Bohr mag/cell
     absolute magnetization    =     1.06 Bohr mag/cell

     iteration # 22     ecut=    70.00 Ry     beta= 0.70
     Davidson diagonalization with overlap
     ethr =  5.56E-09,  avg # of iterations =  2.5

     negative rho (up, down):  5.548E-04 1.396E-03

     total cpu time spent up to now is     2289.8 secs

     total energy              =    -734.75795598 Ry
     Harris-Foulkes estimate   =    -734.75795790 Ry
     estimated scf accuracy    <       0.00003640 Ry

     total magnetization       =     1.00 Bohr mag/cell
     absolute magnetization    =     1.06 Bohr mag/cell

     iteration # 23     ecut=    70.00 Ry     beta= 0.70
     Davidson diagonalization with overlap
     ethr =  5.56E-09,  avg # of iterations =  2.5

     negative rho (up, down):  5.545E-04 1.406E-03

     total cpu time spent up to now is     2384.8 secs

     total energy              =    -734.75795634 Ry
     Harris-Foulkes estimate   =    -734.75795777 Ry
     estimated scf accuracy    <       0.00001646 Ry

     total magnetization       =     1.00 Bohr mag/cell
     absolute magnetization    =     1.06 Bohr mag/cell

     iteration # 24     ecut=    70.00 Ry     beta= 0.70
     Davidson diagonalization with overlap
     ethr =  5.56E-09,  avg # of iterations =  2.0

     negative rho (up, down):  5.551E-04 1.390E-03

     total cpu time spent up to now is     2477.9 secs

     total energy              =    -734.75795708 Ry
     Harris-Foulkes estimate   =    -734.75795733 Ry
     estimated scf accuracy    <       0.00001497 Ry

     total magnetization       =     1.00 Bohr mag/cell
     absolute magnetization    =     1.06 Bohr mag/cell

     iteration # 25     ecut=    70.00 Ry     beta= 0.70
     Davidson diagonalization with overlap
     ethr =  5.56E-09,  avg # of iterations =  1.0

     negative rho (up, down):  5.551E-04 1.394E-03

     total cpu time spent up to now is     2569.9 secs

     total energy              =    -734.75795704 Ry
     Harris-Foulkes estimate   =    -734.75795767 Ry
     estimated scf accuracy    <       0.00000577 Ry

     total magnetization       =     1.00 Bohr mag/cell
     absolute magnetization    =     1.06 Bohr mag/cell

     iteration # 26     ecut=    70.00 Ry     beta= 0.70
     Davidson diagonalization with overlap
     ethr =  2.76E-09,  avg # of iterations =  1.0

     negative rho (up, down):  5.550E-04 1.393E-03

     total cpu time spent up to now is     2662.4 secs

     total energy              =    -734.75795676 Ry
     Harris-Foulkes estimate   =    -734.75795735 Ry
     estimated scf accuracy    <       0.00000395 Ry

     total magnetization       =     1.00 Bohr mag/cell
     absolute magnetization    =     1.06 Bohr mag/cell

     iteration # 27     ecut=    70.00 Ry     beta= 0.70
     Davidson diagonalization with overlap
     ethr =  1.89E-09,  avg # of iterations =  2.5

     negative rho (up, down):  5.552E-04 1.384E-03

     Magnetic moment per site:
     atom:    1    charge:    0.2109    magn:   -0.0000    constr:    0.0000
     atom:    2    charge:    0.2108    magn:   -0.0000    constr:    0.0000
     atom:    3    charge:    1.7158    magn:    0.0016    constr:    0.0000
     atom:    4    charge:    1.7153    magn:    0.0017    constr:    0.0000
     atom:    5    charge:    1.7170    magn:    0.0001    constr:    0.0000
     atom:    6    charge:    1.7146    magn:   -0.0001    constr:    0.0000
     atom:    7    charge:    1.7170    magn:    0.0001    constr:    0.0000
     atom:    8    charge:    1.7153    magn:    0.0017    constr:    0.0000
     atom:    9    charge:    1.7158    magn:    0.0016    constr:    0.0000
     atom:   10    charge:    1.7171    magn:   -0.0009    constr:    0.0000
     atom:   11    charge:    1.7160    magn:    0.0005    constr:    0.0000
     atom:   12    charge:    1.7170    magn:   -0.0009    constr:    0.0000
     atom:   13    charge:    1.7160    magn:    0.0005    constr:    0.0000
     atom:   14    charge:    1.7169    magn:   -0.0010    constr:    0.0000
     atom:   15    charge:    1.7129    magn:    0.0072    constr:    0.0000
     atom:   16    charge:    1.7108    magn:    0.0132    constr:    0.0000
     atom:   17    charge:    1.7213    magn:    0.0030    constr:    0.0000
     atom:   18    charge:    1.7109    magn:    0.0132    constr:    0.0000
     atom:   19    charge:    1.7130    magn:    0.0073    constr:    0.0000
     atom:   20    charge:    1.7169    magn:   -0.0010    constr:    0.0000
     atom:   21    charge:    1.7160    magn:    0.0005    constr:    0.0000
     atom:   22    charge:    1.7170    magn:   -0.0009    constr:    0.0000
     atom:   23    charge:    1.7158    magn:    0.0016    constr:    0.0000
     atom:   24    charge:    1.7153    magn:    0.0017    constr:    0.0000
     atom:   25    charge:    1.7129    magn:    0.0072    constr:    0.0000
     atom:   26    charge:    1.7107    magn:    0.0131    constr:    0.0000
     atom:   27    charge:    1.8171    magn:    0.0791    constr:    0.0000
     atom:   28    charge:    7.0284    magn:    0.1548    constr:    0.0000
     atom:   29    charge:    1.8172    magn:    0.0797    constr:    0.0000
     atom:   30    charge:    1.7107    magn:    0.0130    constr:    0.0000
     atom:   31    charge:    1.7130    magn:    0.0072    constr:    0.0000
     atom:   32    charge:    1.7153    magn:    0.0017    constr:    0.0000
     atom:   33    charge:    1.7170    magn:    0.0001    constr:    0.0000
     atom:   34    charge:    1.7153    magn:   -0.0000    constr:    0.0000
     atom:   35    charge:    1.7170    magn:    0.0001    constr:    0.0000
     atom:   36    charge:    1.7146    magn:   -0.0001    constr:    0.0000
     atom:   37    charge:    1.7214    magn:    0.0031    constr:    0.0000
     atom:   38    charge:    1.7108    magn:    0.0132    constr:    0.0000
     atom:   39    charge:    1.8176    magn:    0.0801    constr:    0.0000
     atom:   40    charge:    1.7107    magn:    0.0130    constr:    0.0000
     atom:   41    charge:    1.7214    magn:    0.0031    constr:    0.0000
     atom:   42    charge:    1.7146    magn:   -0.0001    constr:    0.0000
     atom:   43    charge:    1.7170    magn:    0.0001    constr:    0.0000
     atom:   44    charge:    1.7153    magn:   -0.0000    constr:    0.0000
     atom:   45    charge:    1.7211    magn:   -0.0007    constr:    0.0000
     atom:   46    charge:    1.7153    magn:   -0.0000    constr:    0.0000
     atom:   47    charge:    1.7170    magn:    0.0001    constr:    0.0000
     atom:   48    charge:    1.7153    magn:    0.0017    constr:    0.0000
     atom:   49    charge:    1.7130    magn:    0.0073    constr:    0.0000
     atom:   50    charge:    1.7169    magn:   -0.0010    constr:    0.0000
     atom:   51    charge:    1.7130    magn:    0.0073    constr:    0.0000
     atom:   52    charge:    1.7153    magn:    0.0017    constr:    0.0000

     total cpu time spent up to now is     2760.4 secs

     End of self-consistent calculation

 ------ SPIN UP ------------


          k = 0.0000 0.0000 0.0000 ( 87777 PWs)   bands (ev):

   -19.8394 -18.9969 -18.9966 -18.9025 -18.9023 -18.8408 -18.7634 -17.1676
   -17.1675 -17.1304 -17.0862 -17.0861 -16.8084 -16.3269 -16.3269 -16.1815
   -16.1814 -16.1592 -15.7674 -14.4234 -14.4232 -14.1279 -14.0330 -14.0329
   -13.5756 -13.1652 -13.1652 -13.0786 -12.9360 -12.9359 -12.6307 -12.3153
   -12.3151 -11.7129 -11.6070 -11.6070 -11.1856 -10.9365 -10.9364  -9.5227
    -9.3626  -9.3625  -9.2419  -9.2321  -9.2320  -9.2228  -9.1066  -9.1062
    -9.0593  -9.0592  -8.9591  -8.7157  -8.7157  -7.9552  -7.8949  -7.8372
    -7.6623  -7.6622  -7.5329  -7.5329  -6.9364  -6.8409  -6.8404  -6.8161
    -6.7889  -6.7138  -6.7131  -6.7080  -6.6168  -6.6167  -6.5730  -6.5664
    -6.5663  -6.5491  -6.5204  -6.3965  -6.3965  -5.6119  -5.6119  -5.0270
    -5.0113  -4.9554  -4.8842  -4.8841  -4.7609  -4.7238  -4.7237  -4.5397
    -4.5396  -4.4683  -3.8502  -3.8500  -3.8169  -3.8168  -3.7815  -3.6379
    -3.6377  -3.4050  -1.8813  -1.8254  -1.8253  -1.7312  -1.7310  -1.2200
    -0.8351  -0.8350   0.9131   0.9493   0.9495   1.0966   1.0967   1.4997
     2.4728   2.7955   2.7957   2.8399   2.9336   2.9339   3.4074   3.4353
     3.6073   3.7235   3.7294   3.7493   3.8930   3.9850

     occupation numbers 
     1.0000   1.0000   1.0000   1.0000   1.0000   1.0000   1.0000   1.0000
     1.0000   1.0000   1.0000   1.0000   1.0000   1.0000   1.0000   1.0000
     1.0000   1.0000   1.0000   1.0000   1.0000   1.0000   1.0000   1.0000
     1.0000   1.0000   1.0000   1.0000   1.0000   1.0000   1.0000   1.0000
     1.0000   1.0000   1.0000   1.0000   1.0000   1.0000   1.0000   1.0000
     1.0000   1.0000   1.0000   1.0000   1.0000   1.0000   1.0000   1.0000
     1.0000   1.0000   1.0000   1.0000   1.0000   1.0000   1.0000   1.0000
     1.0000   1.0000   1.0000   1.0000   1.0000   1.0000   1.0000   1.0000
     1.0000   1.0000   1.0000   1.0000   1.0000   1.0000   1.0000   1.0000
     1.0000   1.0000   1.0000   1.0000   1.0000   1.0000   1.0000   1.0000
     1.0000   1.0000   1.0000   1.0000   1.0000   1.0000   1.0000   1.0000
     1.0000   1.0000   1.0000   1.0000   1.0000   1.0000   1.0000   1.0000
     1.0000   1.0000   1.0000   1.0000   1.0000   1.0000   1.0000   1.0000
     0.5039   0.4961   0.0000   0.0000   0.0000   0.0000   0.0000   0.0000
     0.0000   0.0000   0.0000   0.0000   0.0000   0.0000   0.0000   0.0000
     0.0000   0.0000   0.0000   0.0000   0.0000   0.0000

 ------ SPIN DOWN ----------


          k = 0.0000 0.0000 0.0000 ( 87777 PWs)   bands (ev):

   -19.8144 -18.9644 -18.9642 -18.8957 -18.8954 -18.8378 -18.6878 -17.1281
   -17.1280 -17.1144 -17.0645 -17.0643 -16.7749 -16.2896 -16.2895 -16.1598
   -16.1596 -16.1522 -15.6917 -14.3332 -14.3331 -14.1037 -14.0249 -14.0248
   -13.5331 -13.1398 -13.1398 -13.0656 -12.8994 -12.8991 -12.5659 -12.2040
   -12.2039 -11.6932 -11.5725 -11.5723 -11.0802 -10.8063 -10.8061  -9.4819
    -9.3431  -9.3430  -9.2342  -9.2233  -9.2232  -9.2104  -9.0029  -9.0028
    -8.9349  -8.9340  -8.8342  -8.6743  -8.6741  -7.9451  -7.8706  -7.8154
    -7.6134  -7.6134  -7.5153  -7.5152  -6.8864  -6.8397  -6.8393  -6.7886
    -6.7755  -6.7007  -6.7001  -6.6704  -6.5949  -6.5947  -6.5652  -6.5624
    -6.5623  -6.5491  -6.5143  -6.3556  -6.3556  -5.5843  -5.5843  -5.0080
    -4.9455  -4.8643  -4.8641  -4.7975  -4.7560  -4.7228  -4.7226  -4.5300
    -4.5299  -4.4522  -3.8461  -3.8460  -3.7914  -3.7913  -3.7822  -3.6195
    -3.6193  -3.3670  -1.8775  -1.8235  -1.8234  -1.7091  -1.7088  -1.1833
    -0.4340  -0.4318   0.9163   0.9526   0.9528   1.1199   1.1201   1.5118
     2.4740   2.7977   2.7979   2.8410   2.9610   2.9613   3.4164   3.4365
     3.6081   3.7228   3.7287   3.7483   3.9043   3.9888

     occupation numbers 
     1.0000   1.0000   1.0000   1.0000   1.0000   1.0000   1.0000   1.0000
     1.0000   1.0000   1.0000   1.0000   1.0000   1.0000   1.0000   1.0000
     1.0000   1.0000   1.0000   1.0000   1.0000   1.0000   1.0000   1.0000
     1.0000   1.0000   1.0000   1.0000   1.0000   1.0000   1.0000   1.0000
     1.0000   1.0000   1.0000   1.0000   1.0000   1.0000   1.0000   1.0000
     1.0000   1.0000   1.0000   1.0000   1.0000   1.0000   1.0000   1.0000
     1.0000   1.0000   1.0000   1.0000   1.0000   1.0000   1.0000   1.0000
     1.0000   1.0000   1.0000   1.0000   1.0000   1.0000   1.0000   1.0000
     1.0000   1.0000   1.0000   1.0000   1.0000   1.0000   1.0000   1.0000
     1.0000   1.0000   1.0000   1.0000   1.0000   1.0000   1.0000   1.0000
     1.0000   1.0000   1.0000   1.0000   1.0000   1.0000   1.0000   1.0000
     1.0000   1.0000   1.0000   1.0000   1.0000   1.0000   1.0000   1.0000
     1.0000   1.0000   1.0000   1.0000   1.0000   1.0000   1.0000   1.0000
     0.0000   0.0000   0.0000   0.0000   0.0000   0.0000   0.0000   0.0000
     0.0000   0.0000   0.0000   0.0000   0.0000   0.0000   0.0000   0.0000
     0.0000   0.0000   0.0000   0.0000   0.0000   0.0000

     the Fermi energy is    -0.8331 ev

!    total energy              =    -734.75795700 Ry
     Harris-Foulkes estimate   =    -734.75795735 Ry
     estimated scf accuracy    <       0.00000063 Ry

     The total energy is the sum of the following terms:

     one-electron contribution =   -2473.91072477 Ry
     hartree contribution      =    1292.70045526 Ry
     xc contribution           =    -275.91952379 Ry
     ewald contribution        =     722.37216446 Ry
     smearing contrib. (-TS)   =      -0.00032816 Ry

     total magnetization       =     1.00 Bohr mag/cell
     absolute magnetization    =     1.07 Bohr mag/cell

     convergence has been achieved in  27 iterations

     Writing output data file cobre-baricentro-distance-5.0.save/

     init_run     :     72.86s CPU     74.09s WALL (       1 calls)
     electrons    :   2637.60s CPU   2685.30s WALL (       1 calls)

     Called by init_run:
     wfcinit      :     42.37s CPU     42.59s WALL (       1 calls)
     wfcinit:atom :      0.06s CPU      0.09s WALL (       2 calls)
     wfcinit:wfcr :     41.94s CPU     42.11s WALL (       2 calls)
     potinit      :     12.71s CPU     13.15s WALL (       1 calls)
     hinit0       :      8.96s CPU      9.00s WALL (       1 calls)

     Called by electrons:
     c_bands      :   1654.16s CPU   1662.47s WALL (      27 calls)
     sum_band     :    568.64s CPU    584.67s WALL (      27 calls)
     v_of_rho     :    203.48s CPU    213.63s WALL (      28 calls)
     v_h          :      2.09s CPU      2.13s WALL (      28 calls)
     v_xc         :    201.40s CPU    211.49s WALL (      28 calls)
     newd         :    207.28s CPU    221.03s WALL (      28 calls)
     mix_rho      :     12.15s CPU     12.35s WALL (      27 calls)

     Called by c_bands:
     init_us_2    :      5.09s CPU      5.12s WALL (     110 calls)
     cegterg      :   1642.04s CPU   1650.27s WALL (      54 calls)

     Called by sum_band:
     sum_band:bec :      0.05s CPU      0.05s WALL (      54 calls)
     addusdens    :    353.70s CPU    368.38s WALL (      27 calls)

     Called by *egterg:
     h_psi        :    875.24s CPU    881.00s WALL (     196 calls)
     s_psi        :    294.89s CPU    294.99s WALL (     196 calls)
     g_psi        :      0.90s CPU      0.90s WALL (     140 calls)
     cdiaghg      :     11.85s CPU     11.86s WALL (     194 calls)
     cegterg:over :    198.51s CPU    198.58s WALL (     140 calls)
     cegterg:upda :    116.02s CPU    116.67s WALL (     140 calls)
     cegterg:last :     88.39s CPU     88.41s WALL (      54 calls)

     Called by h_psi:
     h_psi:pot    :    874.23s CPU    878.94s WALL (     196 calls)
     h_psi:calbec :    297.05s CPU    297.18s WALL (     196 calls)
     vloc_psi     :    282.21s CPU    286.68s WALL (     196 calls)
     add_vuspsi   :    294.97s CPU    295.08s WALL (     196 calls)

     General routines
     calbec       :    427.61s CPU    427.78s WALL (     250 calls)
     fft          :    116.62s CPU    120.59s WALL (    2094 calls)
     ffts         :      2.01s CPU      2.11s WALL (     110 calls)
     fftw         :    301.55s CPU    306.52s WALL (   37764 calls)
     interpolate  :      4.86s CPU      4.97s WALL (      56 calls)

     Parallel routines
     fft_scatt_xy :     75.27s CPU     76.19s WALL (   39968 calls)
     fft_scatt_yz :    140.98s CPU    147.37s WALL (   39968 calls)

     PWSCF        :  45m11.77s CPU  46m 1.08s WALL


   This run was terminated on:   7:49:31   8Sep2022            

=------------------------------------------------------------------------------=
   JOB DONE.
=------------------------------------------------------------------------------=
